   3   3   1   0
  0.7396212E+02  0.3329085E-09  0.3329085E-09  0.2311800E-08  0.5000000E-15
  1.000000000000000E-004
  CAR 
 VSe2                                    
      3.00589108    -43.17582683  301     -2.44678541      1.00000000
    -43.176  0.0000E+00  0.0000E+00
    -43.022  0.0000E+00  0.0000E+00
    -42.868  0.0000E+00  0.0000E+00
    -42.714  0.0000E+00  0.0000E+00
    -42.560  0.0000E+00  0.0000E+00
    -42.406  0.0000E+00  0.0000E+00
    -42.252  0.0000E+00  0.0000E+00
    -42.098  0.0000E+00  0.0000E+00
    -41.944  0.0000E+00  0.0000E+00
    -41.790  0.0000E+00  0.0000E+00
    -41.636  0.0000E+00  0.0000E+00
    -41.482  0.7952E-12  0.1224E-12
    -41.329  0.1421E-04  0.2187E-05
    -41.175  0.2650E+00  0.4080E-01
    -41.021  0.1424E+02  0.2232E+01
    -40.867  0.1846E+02  0.5073E+01
    -40.713  0.5989E+01  0.5995E+01
    -40.559  0.3103E-01  0.6000E+01
    -40.405  0.2045E-06  0.6000E+01
    -40.251  0.9026E-15  0.6000E+01
    -40.097  0.0000E+00  0.6000E+01
    -39.943  0.0000E+00  0.6000E+01
    -39.789  0.0000E+00  0.6000E+01
    -39.635  0.0000E+00  0.6000E+01
    -39.481  0.0000E+00  0.6000E+01
    -39.327  0.0000E+00  0.6000E+01
    -39.173  0.0000E+00  0.6000E+01
    -39.019  0.0000E+00  0.6000E+01
    -38.866  0.0000E+00  0.6000E+01
    -38.712  0.0000E+00  0.6000E+01
    -38.558  0.0000E+00  0.6000E+01
    -38.404  0.0000E+00  0.6000E+01
    -38.250  0.0000E+00  0.6000E+01
    -38.096  0.0000E+00  0.6000E+01
    -37.942  0.0000E+00  0.6000E+01
    -37.788  0.0000E+00  0.6000E+01
    -37.634  0.0000E+00  0.6000E+01
    -37.480  0.0000E+00  0.6000E+01
    -37.326  0.0000E+00  0.6000E+01
    -37.172  0.0000E+00  0.6000E+01
    -37.018  0.0000E+00  0.6000E+01
    -36.864  0.0000E+00  0.6000E+01
    -36.710  0.0000E+00  0.6000E+01
    -36.556  0.0000E+00  0.6000E+01
    -36.403  0.0000E+00  0.6000E+01
    -36.249  0.0000E+00  0.6000E+01
    -36.095  0.0000E+00  0.6000E+01
    -35.941  0.0000E+00  0.6000E+01
    -35.787  0.0000E+00  0.6000E+01
    -35.633  0.0000E+00  0.6000E+01
    -35.479  0.0000E+00  0.6000E+01
    -35.325  0.0000E+00  0.6000E+01
    -35.171  0.0000E+00  0.6000E+01
    -35.017  0.0000E+00  0.6000E+01
    -34.863  0.0000E+00  0.6000E+01
    -34.709  0.0000E+00  0.6000E+01
    -34.555  0.0000E+00  0.6000E+01
    -34.401  0.0000E+00  0.6000E+01
    -34.247  0.0000E+00  0.6000E+01
    -34.093  0.0000E+00  0.6000E+01
    -33.939  0.0000E+00  0.6000E+01
    -33.786  0.0000E+00  0.6000E+01
    -33.632  0.0000E+00  0.6000E+01
    -33.478  0.0000E+00  0.6000E+01
    -33.324  0.0000E+00  0.6000E+01
    -33.170  0.0000E+00  0.6000E+01
    -33.016  0.0000E+00  0.6000E+01
    -32.862  0.0000E+00  0.6000E+01
    -32.708  0.0000E+00  0.6000E+01
    -32.554  0.0000E+00  0.6000E+01
    -32.400  0.0000E+00  0.6000E+01
    -32.246  0.0000E+00  0.6000E+01
    -32.092  0.0000E+00  0.6000E+01
    -31.938  0.0000E+00  0.6000E+01
    -31.784  0.0000E+00  0.6000E+01
    -31.630  0.0000E+00  0.6000E+01
    -31.476  0.0000E+00  0.6000E+01
    -31.323  0.0000E+00  0.6000E+01
    -31.169  0.0000E+00  0.6000E+01
    -31.015  0.0000E+00  0.6000E+01
    -30.861  0.0000E+00  0.6000E+01
    -30.707  0.0000E+00  0.6000E+01
    -30.553  0.0000E+00  0.6000E+01
    -30.399  0.0000E+00  0.6000E+01
    -30.245  0.0000E+00  0.6000E+01
    -30.091  0.0000E+00  0.6000E+01
    -29.937  0.0000E+00  0.6000E+01
    -29.783  0.0000E+00  0.6000E+01
    -29.629  0.0000E+00  0.6000E+01
    -29.475  0.0000E+00  0.6000E+01
    -29.321  0.0000E+00  0.6000E+01
    -29.167  0.0000E+00  0.6000E+01
    -29.013  0.0000E+00  0.6000E+01
    -28.859  0.0000E+00  0.6000E+01
    -28.706  0.0000E+00  0.6000E+01
    -28.552  0.0000E+00  0.6000E+01
    -28.398  0.0000E+00  0.6000E+01
    -28.244  0.0000E+00  0.6000E+01
    -28.090  0.0000E+00  0.6000E+01
    -27.936  0.0000E+00  0.6000E+01
    -27.782  0.0000E+00  0.6000E+01
    -27.628  0.0000E+00  0.6000E+01
    -27.474  0.0000E+00  0.6000E+01
    -27.320  0.0000E+00  0.6000E+01
    -27.166  0.0000E+00  0.6000E+01
    -27.012  0.0000E+00  0.6000E+01
    -26.858  0.0000E+00  0.6000E+01
    -26.704  0.0000E+00  0.6000E+01
    -26.550  0.0000E+00  0.6000E+01
    -26.396  0.0000E+00  0.6000E+01
    -26.243  0.0000E+00  0.6000E+01
    -26.089  0.0000E+00  0.6000E+01
    -25.935  0.0000E+00  0.6000E+01
    -25.781  0.0000E+00  0.6000E+01
    -25.627  0.0000E+00  0.6000E+01
    -25.473  0.0000E+00  0.6000E+01
    -25.319  0.0000E+00  0.6000E+01
    -25.165  0.0000E+00  0.6000E+01
    -25.011  0.0000E+00  0.6000E+01
    -24.857  0.0000E+00  0.6000E+01
    -24.703  0.0000E+00  0.6000E+01
    -24.549  0.0000E+00  0.6000E+01
    -24.395  0.0000E+00  0.6000E+01
    -24.241  0.0000E+00  0.6000E+01
    -24.087  0.0000E+00  0.6000E+01
    -23.933  0.0000E+00  0.6000E+01
    -23.780  0.0000E+00  0.6000E+01
    -23.626  0.0000E+00  0.6000E+01
    -23.472  0.0000E+00  0.6000E+01
    -23.318  0.0000E+00  0.6000E+01
    -23.164  0.0000E+00  0.6000E+01
    -23.010  0.0000E+00  0.6000E+01
    -22.856  0.0000E+00  0.6000E+01
    -22.702  0.0000E+00  0.6000E+01
    -22.548  0.0000E+00  0.6000E+01
    -22.394  0.0000E+00  0.6000E+01
    -22.240  0.0000E+00  0.6000E+01
    -22.086  0.0000E+00  0.6000E+01
    -21.932  0.0000E+00  0.6000E+01
    -21.778  0.0000E+00  0.6000E+01
    -21.624  0.0000E+00  0.6000E+01
    -21.470  0.0000E+00  0.6000E+01
    -21.316  0.0000E+00  0.6000E+01
    -21.163  0.0000E+00  0.6000E+01
    -21.009  0.0000E+00  0.6000E+01
    -20.855  0.0000E+00  0.6000E+01
    -20.701  0.0000E+00  0.6000E+01
    -20.547  0.0000E+00  0.6000E+01
    -20.393  0.0000E+00  0.6000E+01
    -20.239  0.0000E+00  0.6000E+01
    -20.085  0.0000E+00  0.6000E+01
    -19.931  0.0000E+00  0.6000E+01
    -19.777  0.0000E+00  0.6000E+01
    -19.623  0.0000E+00  0.6000E+01
    -19.469  0.0000E+00  0.6000E+01
    -19.315  0.0000E+00  0.6000E+01
    -19.161  0.0000E+00  0.6000E+01
    -19.007  0.0000E+00  0.6000E+01
    -18.853  0.0000E+00  0.6000E+01
    -18.700  0.0000E+00  0.6000E+01
    -18.546  0.0000E+00  0.6000E+01
    -18.392  0.0000E+00  0.6000E+01
    -18.238  0.0000E+00  0.6000E+01
    -18.084  0.0000E+00  0.6000E+01
    -17.930  0.0000E+00  0.6000E+01
    -17.776  0.0000E+00  0.6000E+01
    -17.622  0.0000E+00  0.6000E+01
    -17.468  0.0000E+00  0.6000E+01
    -17.314  0.0000E+00  0.6000E+01
    -17.160  0.4956E-10  0.6000E+01
    -17.006  0.3642E-04  0.6000E+01
    -16.852  0.4080E-01  0.6006E+01
    -16.698  0.4151E+00  0.6070E+01
    -16.544  0.5679E+00  0.6158E+01
    -16.390  0.5890E+00  0.6248E+01
    -16.236  0.6139E+00  0.6343E+01
    -16.083  0.6445E+00  0.6442E+01
    -15.929  0.7530E+00  0.6558E+01
    -15.775  0.1415E+01  0.6776E+01
    -15.621  0.1744E+01  0.7044E+01
    -15.467  0.1924E+01  0.7340E+01
    -15.313  0.2193E+01  0.7678E+01
    -15.159  0.2659E+01  0.8087E+01
    -15.005  0.3764E+01  0.8667E+01
    -14.851  0.5083E+01  0.9449E+01
    -14.697  0.3323E+01  0.9961E+01
    -14.543  0.2558E+00  0.1000E+02
    -14.389  0.1963E-03  0.1000E+02
    -14.235  0.2385E-09  0.1000E+02
    -14.081  0.0000E+00  0.1000E+02
    -13.927  0.0000E+00  0.1000E+02
    -13.773  0.0000E+00  0.1000E+02
    -13.620  0.0000E+00  0.1000E+02
    -13.466  0.0000E+00  0.1000E+02
    -13.312  0.0000E+00  0.1000E+02
    -13.158  0.0000E+00  0.1000E+02
    -13.004  0.0000E+00  0.1000E+02
    -12.850  0.0000E+00  0.1000E+02
    -12.696  0.0000E+00  0.1000E+02
    -12.542  0.0000E+00  0.1000E+02
    -12.388  0.0000E+00  0.1000E+02
    -12.234  0.0000E+00  0.1000E+02
    -12.080  0.0000E+00  0.1000E+02
    -11.926  0.0000E+00  0.1000E+02
    -11.772  0.0000E+00  0.1000E+02
    -11.618  0.0000E+00  0.1000E+02
    -11.464  0.0000E+00  0.1000E+02
    -11.310  0.0000E+00  0.1000E+02
    -11.157  0.0000E+00  0.1000E+02
    -11.003  0.0000E+00  0.1000E+02
    -10.849  0.0000E+00  0.1000E+02
    -10.695  0.0000E+00  0.1000E+02
    -10.541  0.0000E+00  0.1000E+02
    -10.387  0.0000E+00  0.1000E+02
    -10.233  0.0000E+00  0.1000E+02
    -10.079  0.0000E+00  0.1000E+02
     -9.925  0.0000E+00  0.1000E+02
     -9.771  0.0000E+00  0.1000E+02
     -9.617  0.0000E+00  0.1000E+02
     -9.463  0.0000E+00  0.1000E+02
     -9.309  0.0000E+00  0.1000E+02
     -9.155  0.0000E+00  0.1000E+02
     -9.001  0.0000E+00  0.1000E+02
     -8.847  0.0000E+00  0.1000E+02
     -8.693  0.6678E-17  0.1000E+02
     -8.540  0.1555E-08  0.1000E+02
     -8.386  0.3080E-03  0.1000E+02
     -8.232  0.1171E+00  0.1002E+02
     -8.078  0.6725E+00  0.1012E+02
     -7.924  0.8123E+00  0.1025E+02
     -7.770  0.8527E+00  0.1038E+02
     -7.616  0.1038E+01  0.1054E+02
     -7.462  0.1446E+01  0.1076E+02
     -7.308  0.1757E+01  0.1103E+02
     -7.154  0.2545E+01  0.1142E+02
     -7.000  0.3894E+01  0.1202E+02
     -6.846  0.3776E+01  0.1260E+02
     -6.692  0.2471E+01  0.1298E+02
     -6.538  0.2005E+01  0.1329E+02
     -6.384  0.1653E+01  0.1355E+02
     -6.230  0.8397E+00  0.1368E+02
     -6.077  0.1563E+01  0.1392E+02
     -5.923  0.2285E+01  0.1427E+02
     -5.769  0.2320E+01  0.1463E+02
     -5.615  0.3812E+01  0.1521E+02
     -5.461  0.2874E+01  0.1565E+02
     -5.307  0.2264E+01  0.1600E+02
     -5.153  0.3228E+01  0.1650E+02
     -4.999  0.3450E+01  0.1703E+02
     -4.845  0.3631E+01  0.1759E+02
     -4.691  0.4378E+01  0.1826E+02
     -4.537  0.5619E+01  0.1913E+02
     -4.383  0.2868E+01  0.1957E+02
     -4.229  0.2139E+01  0.1990E+02
     -4.075  0.2163E+01  0.2023E+02
     -3.921  0.2525E+01  0.2062E+02
     -3.767  0.2068E+01  0.2094E+02
     -3.613  0.1302E+01  0.2114E+02
     -3.460  0.1539E+01  0.2138E+02
     -3.306  0.1483E+01  0.2161E+02
     -3.152  0.8575E+00  0.2174E+02
     -2.998  0.1042E+01  0.2190E+02
     -2.844  0.1308E+01  0.2210E+02
     -2.690  0.1637E+01  0.2235E+02
     -2.536  0.2231E+01  0.2269E+02
     -2.382  0.3387E+01  0.2322E+02
     -2.228  0.1794E+01  0.2349E+02
     -2.074  0.1219E+01  0.2368E+02
     -1.920  0.9932E+00  0.2383E+02
     -1.766  0.8591E+00  0.2397E+02
     -1.612  0.4093E+01  0.2460E+02
     -1.458  0.8073E+01  0.2584E+02
     -1.304  0.5149E+01  0.2663E+02
     -1.150  0.7713E+01  0.2782E+02
     -0.997  0.1178E+01  0.2800E+02
     -0.843  0.4324E-02  0.2800E+02
     -0.689  0.2700E-02  0.2800E+02
     -0.535  0.4031E+00  0.2806E+02
     -0.381  0.1675E+01  0.2832E+02
     -0.227  0.3099E+01  0.2880E+02
     -0.073  0.2840E+01  0.2923E+02
      0.081  0.1787E+01  0.2951E+02
      0.235  0.1674E+01  0.2977E+02
      0.389  0.2411E+01  0.3014E+02
      0.543  0.4318E+01  0.3080E+02
      0.697  0.5837E+01  0.3170E+02
      0.851  0.1709E+01  0.3196E+02
      1.005  0.2265E+00  0.3200E+02
      1.159  0.3424E-02  0.3200E+02
      1.313  0.1918E-06  0.3200E+02
      1.467  0.1201E-13  0.3200E+02
      1.620  0.0000E+00  0.3200E+02
      1.774  0.0000E+00  0.3200E+02
      1.928  0.0000E+00  0.3200E+02
      2.082  0.0000E+00  0.3200E+02
      2.236  0.0000E+00  0.3200E+02
      2.390  0.0000E+00  0.3200E+02
      2.544  0.0000E+00  0.3200E+02
      2.698  0.0000E+00  0.3200E+02
      2.852  0.0000E+00  0.3200E+02
      3.006  0.0000E+00  0.3200E+02
      3.00589108    -43.17582683  301     -2.44678541      1.00000000
    -43.176  0.0000E+00  0.0000E+00  0.0000E+00  0.0000E+00  0.0000E+00  0.0000E+00  0.0000E+00  0.0000E+00  0.0000E+00
    -43.022  0.0000E+00  0.0000E+00  0.0000E+00  0.0000E+00  0.0000E+00  0.0000E+00  0.0000E+00  0.0000E+00  0.0000E+00
    -42.868  0.0000E+00  0.0000E+00  0.0000E+00  0.0000E+00  0.0000E+00  0.0000E+00  0.0000E+00  0.0000E+00  0.0000E+00
    -42.714  0.0000E+00  0.0000E+00  0.0000E+00  0.0000E+00  0.0000E+00  0.0000E+00  0.0000E+00  0.0000E+00  0.0000E+00
    -42.560  0.0000E+00  0.0000E+00  0.0000E+00  0.0000E+00  0.0000E+00  0.0000E+00  0.0000E+00  0.0000E+00  0.0000E+00
    -42.406  0.0000E+00  0.0000E+00  0.0000E+00  0.0000E+00  0.0000E+00  0.0000E+00  0.0000E+00  0.0000E+00  0.0000E+00
    -42.252  0.0000E+00  0.0000E+00  0.0000E+00  0.0000E+00  0.0000E+00  0.0000E+00  0.0000E+00  0.0000E+00  0.0000E+00
    -42.098  0.0000E+00  0.0000E+00  0.0000E+00  0.0000E+00  0.0000E+00  0.0000E+00  0.0000E+00  0.0000E+00  0.0000E+00
    -41.944  0.0000E+00  0.0000E+00  0.0000E+00  0.0000E+00  0.0000E+00  0.0000E+00  0.0000E+00  0.0000E+00  0.0000E+00
    -41.790  0.0000E+00  0.0000E+00  0.0000E+00  0.0000E+00  0.0000E+00  0.0000E+00  0.0000E+00  0.0000E+00  0.0000E+00
    -41.636  0.0000E+00  0.0000E+00  0.0000E+00  0.0000E+00  0.0000E+00  0.0000E+00  0.0000E+00  0.0000E+00  0.0000E+00
    -41.482  0.9340E-18  0.3921E-12  0.6700E-16  0.3922E-12  0.3737E-18  0.7098E-20  0.2405E-18  0.7097E-20  0.3738E-18
    -41.329  0.2218E-10  0.7006E-05  0.1042E-08  0.7007E-05  0.7992E-11  0.1477E-12  0.5713E-11  0.1477E-12  0.7993E-11
    -41.175  0.5393E-06  0.1308E+00  0.1607E-04  0.1308E+00  0.1870E-06  0.3019E-08  0.1389E-06  0.3019E-08  0.1871E-06
    -41.021  0.2854E-04  0.7004E+01  0.6121E-01  0.7004E+01  0.1200E-04  0.1497E-06  0.7343E-05  0.1497E-06  0.1200E-04
    -40.867  0.1732E-04  0.5659E+01  0.6933E+01  0.5659E+01  0.9697E-05  0.1014E-05  0.4455E-05  0.1014E-05  0.9697E-05
    -40.713  0.9641E-07  0.5218E-01  0.5815E+01  0.5218E-01  0.1123E-06  0.7347E-06  0.2755E-07  0.7347E-06  0.1123E-06
    -40.559  0.3310E-10  0.2086E-05  0.3067E-01  0.2086E-05  0.1828E-09  0.3497E-08  0.2343E-10  0.3497E-08  0.1828E-09
    -40.405  0.2096E-15  0.7619E-11  0.2021E-06  0.7620E-11  0.1041E-14  0.2035E-13  0.1522E-15  0.2035E-13  0.1041E-14
    -40.251  0.8792E-24  0.3102E-19  0.8923E-15  0.3103E-19  0.1952E-23  0.4217E-22  0.6598E-24  0.4218E-22  0.1952E-23
    -40.097  0.0000E+00  0.0000E+00  0.0000E+00  0.0000E+00  0.0000E+00  0.0000E+00  0.0000E+00  0.0000E+00  0.0000E+00
    -39.943  0.0000E+00  0.0000E+00  0.0000E+00  0.0000E+00  0.0000E+00  0.0000E+00  0.0000E+00  0.0000E+00  0.0000E+00
    -39.789  0.0000E+00  0.0000E+00  0.0000E+00  0.0000E+00  0.0000E+00  0.0000E+00  0.0000E+00  0.0000E+00  0.0000E+00
    -39.635  0.0000E+00  0.0000E+00  0.0000E+00  0.0000E+00  0.0000E+00  0.0000E+00  0.0000E+00  0.0000E+00  0.0000E+00
    -39.481  0.0000E+00  0.0000E+00  0.0000E+00  0.0000E+00  0.0000E+00  0.0000E+00  0.0000E+00  0.0000E+00  0.0000E+00
    -39.327  0.0000E+00  0.0000E+00  0.0000E+00  0.0000E+00  0.0000E+00  0.0000E+00  0.0000E+00  0.0000E+00  0.0000E+00
    -39.173  0.0000E+00  0.0000E+00  0.0000E+00  0.0000E+00  0.0000E+00  0.0000E+00  0.0000E+00  0.0000E+00  0.0000E+00
    -39.019  0.0000E+00  0.0000E+00  0.0000E+00  0.0000E+00  0.0000E+00  0.0000E+00  0.0000E+00  0.0000E+00  0.0000E+00
    -38.866  0.0000E+00  0.0000E+00  0.0000E+00  0.0000E+00  0.0000E+00  0.0000E+00  0.0000E+00  0.0000E+00  0.0000E+00
    -38.712  0.0000E+00  0.0000E+00  0.0000E+00  0.0000E+00  0.0000E+00  0.0000E+00  0.0000E+00  0.0000E+00  0.0000E+00
    -38.558  0.0000E+00  0.0000E+00  0.0000E+00  0.0000E+00  0.0000E+00  0.0000E+00  0.0000E+00  0.0000E+00  0.0000E+00
    -38.404  0.0000E+00  0.0000E+00  0.0000E+00  0.0000E+00  0.0000E+00  0.0000E+00  0.0000E+00  0.0000E+00  0.0000E+00
    -38.250  0.0000E+00  0.0000E+00  0.0000E+00  0.0000E+00  0.0000E+00  0.0000E+00  0.0000E+00  0.0000E+00  0.0000E+00
    -38.096  0.0000E+00  0.0000E+00  0.0000E+00  0.0000E+00  0.0000E+00  0.0000E+00  0.0000E+00  0.0000E+00  0.0000E+00
    -37.942  0.0000E+00  0.0000E+00  0.0000E+00  0.0000E+00  0.0000E+00  0.0000E+00  0.0000E+00  0.0000E+00  0.0000E+00
    -37.788  0.0000E+00  0.0000E+00  0.0000E+00  0.0000E+00  0.0000E+00  0.0000E+00  0.0000E+00  0.0000E+00  0.0000E+00
    -37.634  0.0000E+00  0.0000E+00  0.0000E+00  0.0000E+00  0.0000E+00  0.0000E+00  0.0000E+00  0.0000E+00  0.0000E+00
    -37.480  0.0000E+00  0.0000E+00  0.0000E+00  0.0000E+00  0.0000E+00  0.0000E+00  0.0000E+00  0.0000E+00  0.0000E+00
    -37.326  0.0000E+00  0.0000E+00  0.0000E+00  0.0000E+00  0.0000E+00  0.0000E+00  0.0000E+00  0.0000E+00  0.0000E+00
    -37.172  0.0000E+00  0.0000E+00  0.0000E+00  0.0000E+00  0.0000E+00  0.0000E+00  0.0000E+00  0.0000E+00  0.0000E+00
    -37.018  0.0000E+00  0.0000E+00  0.0000E+00  0.0000E+00  0.0000E+00  0.0000E+00  0.0000E+00  0.0000E+00  0.0000E+00
    -36.864  0.0000E+00  0.0000E+00  0.0000E+00  0.0000E+00  0.0000E+00  0.0000E+00  0.0000E+00  0.0000E+00  0.0000E+00
    -36.710  0.0000E+00  0.0000E+00  0.0000E+00  0.0000E+00  0.0000E+00  0.0000E+00  0.0000E+00  0.0000E+00  0.0000E+00
    -36.556  0.0000E+00  0.0000E+00  0.0000E+00  0.0000E+00  0.0000E+00  0.0000E+00  0.0000E+00  0.0000E+00  0.0000E+00
    -36.403  0.0000E+00  0.0000E+00  0.0000E+00  0.0000E+00  0.0000E+00  0.0000E+00  0.0000E+00  0.0000E+00  0.0000E+00
    -36.249  0.0000E+00  0.0000E+00  0.0000E+00  0.0000E+00  0.0000E+00  0.0000E+00  0.0000E+00  0.0000E+00  0.0000E+00
    -36.095  0.0000E+00  0.0000E+00  0.0000E+00  0.0000E+00  0.0000E+00  0.0000E+00  0.0000E+00  0.0000E+00  0.0000E+00
    -35.941  0.0000E+00  0.0000E+00  0.0000E+00  0.0000E+00  0.0000E+00  0.0000E+00  0.0000E+00  0.0000E+00  0.0000E+00
    -35.787  0.0000E+00  0.0000E+00  0.0000E+00  0.0000E+00  0.0000E+00  0.0000E+00  0.0000E+00  0.0000E+00  0.0000E+00
    -35.633  0.0000E+00  0.0000E+00  0.0000E+00  0.0000E+00  0.0000E+00  0.0000E+00  0.0000E+00  0.0000E+00  0.0000E+00
    -35.479  0.0000E+00  0.0000E+00  0.0000E+00  0.0000E+00  0.0000E+00  0.0000E+00  0.0000E+00  0.0000E+00  0.0000E+00
    -35.325  0.0000E+00  0.0000E+00  0.0000E+00  0.0000E+00  0.0000E+00  0.0000E+00  0.0000E+00  0.0000E+00  0.0000E+00
    -35.171  0.0000E+00  0.0000E+00  0.0000E+00  0.0000E+00  0.0000E+00  0.0000E+00  0.0000E+00  0.0000E+00  0.0000E+00
    -35.017  0.0000E+00  0.0000E+00  0.0000E+00  0.0000E+00  0.0000E+00  0.0000E+00  0.0000E+00  0.0000E+00  0.0000E+00
    -34.863  0.0000E+00  0.0000E+00  0.0000E+00  0.0000E+00  0.0000E+00  0.0000E+00  0.0000E+00  0.0000E+00  0.0000E+00
    -34.709  0.0000E+00  0.0000E+00  0.0000E+00  0.0000E+00  0.0000E+00  0.0000E+00  0.0000E+00  0.0000E+00  0.0000E+00
    -34.555  0.0000E+00  0.0000E+00  0.0000E+00  0.0000E+00  0.0000E+00  0.0000E+00  0.0000E+00  0.0000E+00  0.0000E+00
    -34.401  0.0000E+00  0.0000E+00  0.0000E+00  0.0000E+00  0.0000E+00  0.0000E+00  0.0000E+00  0.0000E+00  0.0000E+00
    -34.247  0.0000E+00  0.0000E+00  0.0000E+00  0.0000E+00  0.0000E+00  0.0000E+00  0.0000E+00  0.0000E+00  0.0000E+00
    -34.093  0.0000E+00  0.0000E+00  0.0000E+00  0.0000E+00  0.0000E+00  0.0000E+00  0.0000E+00  0.0000E+00  0.0000E+00
    -33.939  0.0000E+00  0.0000E+00  0.0000E+00  0.0000E+00  0.0000E+00  0.0000E+00  0.0000E+00  0.0000E+00  0.0000E+00
    -33.786  0.0000E+00  0.0000E+00  0.0000E+00  0.0000E+00  0.0000E+00  0.0000E+00  0.0000E+00  0.0000E+00  0.0000E+00
    -33.632  0.0000E+00  0.0000E+00  0.0000E+00  0.0000E+00  0.0000E+00  0.0000E+00  0.0000E+00  0.0000E+00  0.0000E+00
    -33.478  0.0000E+00  0.0000E+00  0.0000E+00  0.0000E+00  0.0000E+00  0.0000E+00  0.0000E+00  0.0000E+00  0.0000E+00
    -33.324  0.0000E+00  0.0000E+00  0.0000E+00  0.0000E+00  0.0000E+00  0.0000E+00  0.0000E+00  0.0000E+00  0.0000E+00
    -33.170  0.0000E+00  0.0000E+00  0.0000E+00  0.0000E+00  0.0000E+00  0.0000E+00  0.0000E+00  0.0000E+00  0.0000E+00
    -33.016  0.0000E+00  0.0000E+00  0.0000E+00  0.0000E+00  0.0000E+00  0.0000E+00  0.0000E+00  0.0000E+00  0.0000E+00
    -32.862  0.0000E+00  0.0000E+00  0.0000E+00  0.0000E+00  0.0000E+00  0.0000E+00  0.0000E+00  0.0000E+00  0.0000E+00
    -32.708  0.0000E+00  0.0000E+00  0.0000E+00  0.0000E+00  0.0000E+00  0.0000E+00  0.0000E+00  0.0000E+00  0.0000E+00
    -32.554  0.0000E+00  0.0000E+00  0.0000E+00  0.0000E+00  0.0000E+00  0.0000E+00  0.0000E+00  0.0000E+00  0.0000E+00
    -32.400  0.0000E+00  0.0000E+00  0.0000E+00  0.0000E+00  0.0000E+00  0.0000E+00  0.0000E+00  0.0000E+00  0.0000E+00
    -32.246  0.0000E+00  0.0000E+00  0.0000E+00  0.0000E+00  0.0000E+00  0.0000E+00  0.0000E+00  0.0000E+00  0.0000E+00
    -32.092  0.0000E+00  0.0000E+00  0.0000E+00  0.0000E+00  0.0000E+00  0.0000E+00  0.0000E+00  0.0000E+00  0.0000E+00
    -31.938  0.0000E+00  0.0000E+00  0.0000E+00  0.0000E+00  0.0000E+00  0.0000E+00  0.0000E+00  0.0000E+00  0.0000E+00
    -31.784  0.0000E+00  0.0000E+00  0.0000E+00  0.0000E+00  0.0000E+00  0.0000E+00  0.0000E+00  0.0000E+00  0.0000E+00
    -31.630  0.0000E+00  0.0000E+00  0.0000E+00  0.0000E+00  0.0000E+00  0.0000E+00  0.0000E+00  0.0000E+00  0.0000E+00
    -31.476  0.0000E+00  0.0000E+00  0.0000E+00  0.0000E+00  0.0000E+00  0.0000E+00  0.0000E+00  0.0000E+00  0.0000E+00
    -31.323  0.0000E+00  0.0000E+00  0.0000E+00  0.0000E+00  0.0000E+00  0.0000E+00  0.0000E+00  0.0000E+00  0.0000E+00
    -31.169  0.0000E+00  0.0000E+00  0.0000E+00  0.0000E+00  0.0000E+00  0.0000E+00  0.0000E+00  0.0000E+00  0.0000E+00
    -31.015  0.0000E+00  0.0000E+00  0.0000E+00  0.0000E+00  0.0000E+00  0.0000E+00  0.0000E+00  0.0000E+00  0.0000E+00
    -30.861  0.0000E+00  0.0000E+00  0.0000E+00  0.0000E+00  0.0000E+00  0.0000E+00  0.0000E+00  0.0000E+00  0.0000E+00
    -30.707  0.0000E+00  0.0000E+00  0.0000E+00  0.0000E+00  0.0000E+00  0.0000E+00  0.0000E+00  0.0000E+00  0.0000E+00
    -30.553  0.0000E+00  0.0000E+00  0.0000E+00  0.0000E+00  0.0000E+00  0.0000E+00  0.0000E+00  0.0000E+00  0.0000E+00
    -30.399  0.0000E+00  0.0000E+00  0.0000E+00  0.0000E+00  0.0000E+00  0.0000E+00  0.0000E+00  0.0000E+00  0.0000E+00
    -30.245  0.0000E+00  0.0000E+00  0.0000E+00  0.0000E+00  0.0000E+00  0.0000E+00  0.0000E+00  0.0000E+00  0.0000E+00
    -30.091  0.0000E+00  0.0000E+00  0.0000E+00  0.0000E+00  0.0000E+00  0.0000E+00  0.0000E+00  0.0000E+00  0.0000E+00
    -29.937  0.0000E+00  0.0000E+00  0.0000E+00  0.0000E+00  0.0000E+00  0.0000E+00  0.0000E+00  0.0000E+00  0.0000E+00
    -29.783  0.0000E+00  0.0000E+00  0.0000E+00  0.0000E+00  0.0000E+00  0.0000E+00  0.0000E+00  0.0000E+00  0.0000E+00
    -29.629  0.0000E+00  0.0000E+00  0.0000E+00  0.0000E+00  0.0000E+00  0.0000E+00  0.0000E+00  0.0000E+00  0.0000E+00
    -29.475  0.0000E+00  0.0000E+00  0.0000E+00  0.0000E+00  0.0000E+00  0.0000E+00  0.0000E+00  0.0000E+00  0.0000E+00
    -29.321  0.0000E+00  0.0000E+00  0.0000E+00  0.0000E+00  0.0000E+00  0.0000E+00  0.0000E+00  0.0000E+00  0.0000E+00
    -29.167  0.0000E+00  0.0000E+00  0.0000E+00  0.0000E+00  0.0000E+00  0.0000E+00  0.0000E+00  0.0000E+00  0.0000E+00
    -29.013  0.0000E+00  0.0000E+00  0.0000E+00  0.0000E+00  0.0000E+00  0.0000E+00  0.0000E+00  0.0000E+00  0.0000E+00
    -28.859  0.0000E+00  0.0000E+00  0.0000E+00  0.0000E+00  0.0000E+00  0.0000E+00  0.0000E+00  0.0000E+00  0.0000E+00
    -28.706  0.0000E+00  0.0000E+00  0.0000E+00  0.0000E+00  0.0000E+00  0.0000E+00  0.0000E+00  0.0000E+00  0.0000E+00
    -28.552  0.0000E+00  0.0000E+00  0.0000E+00  0.0000E+00  0.0000E+00  0.0000E+00  0.0000E+00  0.0000E+00  0.0000E+00
    -28.398  0.0000E+00  0.0000E+00  0.0000E+00  0.0000E+00  0.0000E+00  0.0000E+00  0.0000E+00  0.0000E+00  0.0000E+00
    -28.244  0.0000E+00  0.0000E+00  0.0000E+00  0.0000E+00  0.0000E+00  0.0000E+00  0.0000E+00  0.0000E+00  0.0000E+00
    -28.090  0.0000E+00  0.0000E+00  0.0000E+00  0.0000E+00  0.0000E+00  0.0000E+00  0.0000E+00  0.0000E+00  0.0000E+00
    -27.936  0.0000E+00  0.0000E+00  0.0000E+00  0.0000E+00  0.0000E+00  0.0000E+00  0.0000E+00  0.0000E+00  0.0000E+00
    -27.782  0.0000E+00  0.0000E+00  0.0000E+00  0.0000E+00  0.0000E+00  0.0000E+00  0.0000E+00  0.0000E+00  0.0000E+00
    -27.628  0.0000E+00  0.0000E+00  0.0000E+00  0.0000E+00  0.0000E+00  0.0000E+00  0.0000E+00  0.0000E+00  0.0000E+00
    -27.474  0.0000E+00  0.0000E+00  0.0000E+00  0.0000E+00  0.0000E+00  0.0000E+00  0.0000E+00  0.0000E+00  0.0000E+00
    -27.320  0.0000E+00  0.0000E+00  0.0000E+00  0.0000E+00  0.0000E+00  0.0000E+00  0.0000E+00  0.0000E+00  0.0000E+00
    -27.166  0.0000E+00  0.0000E+00  0.0000E+00  0.0000E+00  0.0000E+00  0.0000E+00  0.0000E+00  0.0000E+00  0.0000E+00
    -27.012  0.0000E+00  0.0000E+00  0.0000E+00  0.0000E+00  0.0000E+00  0.0000E+00  0.0000E+00  0.0000E+00  0.0000E+00
    -26.858  0.0000E+00  0.0000E+00  0.0000E+00  0.0000E+00  0.0000E+00  0.0000E+00  0.0000E+00  0.0000E+00  0.0000E+00
    -26.704  0.0000E+00  0.0000E+00  0.0000E+00  0.0000E+00  0.0000E+00  0.0000E+00  0.0000E+00  0.0000E+00  0.0000E+00
    -26.550  0.0000E+00  0.0000E+00  0.0000E+00  0.0000E+00  0.0000E+00  0.0000E+00  0.0000E+00  0.0000E+00  0.0000E+00
    -26.396  0.0000E+00  0.0000E+00  0.0000E+00  0.0000E+00  0.0000E+00  0.0000E+00  0.0000E+00  0.0000E+00  0.0000E+00
    -26.243  0.0000E+00  0.0000E+00  0.0000E+00  0.0000E+00  0.0000E+00  0.0000E+00  0.0000E+00  0.0000E+00  0.0000E+00
    -26.089  0.0000E+00  0.0000E+00  0.0000E+00  0.0000E+00  0.0000E+00  0.0000E+00  0.0000E+00  0.0000E+00  0.0000E+00
    -25.935  0.0000E+00  0.0000E+00  0.0000E+00  0.0000E+00  0.0000E+00  0.0000E+00  0.0000E+00  0.0000E+00  0.0000E+00
    -25.781  0.0000E+00  0.0000E+00  0.0000E+00  0.0000E+00  0.0000E+00  0.0000E+00  0.0000E+00  0.0000E+00  0.0000E+00
    -25.627  0.0000E+00  0.0000E+00  0.0000E+00  0.0000E+00  0.0000E+00  0.0000E+00  0.0000E+00  0.0000E+00  0.0000E+00
    -25.473  0.0000E+00  0.0000E+00  0.0000E+00  0.0000E+00  0.0000E+00  0.0000E+00  0.0000E+00  0.0000E+00  0.0000E+00
    -25.319  0.0000E+00  0.0000E+00  0.0000E+00  0.0000E+00  0.0000E+00  0.0000E+00  0.0000E+00  0.0000E+00  0.0000E+00
    -25.165  0.0000E+00  0.0000E+00  0.0000E+00  0.0000E+00  0.0000E+00  0.0000E+00  0.0000E+00  0.0000E+00  0.0000E+00
    -25.011  0.0000E+00  0.0000E+00  0.0000E+00  0.0000E+00  0.0000E+00  0.0000E+00  0.0000E+00  0.0000E+00  0.0000E+00
    -24.857  0.0000E+00  0.0000E+00  0.0000E+00  0.0000E+00  0.0000E+00  0.0000E+00  0.0000E+00  0.0000E+00  0.0000E+00
    -24.703  0.0000E+00  0.0000E+00  0.0000E+00  0.0000E+00  0.0000E+00  0.0000E+00  0.0000E+00  0.0000E+00  0.0000E+00
    -24.549  0.0000E+00  0.0000E+00  0.0000E+00  0.0000E+00  0.0000E+00  0.0000E+00  0.0000E+00  0.0000E+00  0.0000E+00
    -24.395  0.0000E+00  0.0000E+00  0.0000E+00  0.0000E+00  0.0000E+00  0.0000E+00  0.0000E+00  0.0000E+00  0.0000E+00
    -24.241  0.0000E+00  0.0000E+00  0.0000E+00  0.0000E+00  0.0000E+00  0.0000E+00  0.0000E+00  0.0000E+00  0.0000E+00
    -24.087  0.0000E+00  0.0000E+00  0.0000E+00  0.0000E+00  0.0000E+00  0.0000E+00  0.0000E+00  0.0000E+00  0.0000E+00
    -23.933  0.0000E+00  0.0000E+00  0.0000E+00  0.0000E+00  0.0000E+00  0.0000E+00  0.0000E+00  0.0000E+00  0.0000E+00
    -23.780  0.0000E+00  0.0000E+00  0.0000E+00  0.0000E+00  0.0000E+00  0.0000E+00  0.0000E+00  0.0000E+00  0.0000E+00
    -23.626  0.0000E+00  0.0000E+00  0.0000E+00  0.0000E+00  0.0000E+00  0.0000E+00  0.0000E+00  0.0000E+00  0.0000E+00
    -23.472  0.0000E+00  0.0000E+00  0.0000E+00  0.0000E+00  0.0000E+00  0.0000E+00  0.0000E+00  0.0000E+00  0.0000E+00
    -23.318  0.0000E+00  0.0000E+00  0.0000E+00  0.0000E+00  0.0000E+00  0.0000E+00  0.0000E+00  0.0000E+00  0.0000E+00
    -23.164  0.0000E+00  0.0000E+00  0.0000E+00  0.0000E+00  0.0000E+00  0.0000E+00  0.0000E+00  0.0000E+00  0.0000E+00
    -23.010  0.0000E+00  0.0000E+00  0.0000E+00  0.0000E+00  0.0000E+00  0.0000E+00  0.0000E+00  0.0000E+00  0.0000E+00
    -22.856  0.0000E+00  0.0000E+00  0.0000E+00  0.0000E+00  0.0000E+00  0.0000E+00  0.0000E+00  0.0000E+00  0.0000E+00
    -22.702  0.0000E+00  0.0000E+00  0.0000E+00  0.0000E+00  0.0000E+00  0.0000E+00  0.0000E+00  0.0000E+00  0.0000E+00
    -22.548  0.0000E+00  0.0000E+00  0.0000E+00  0.0000E+00  0.0000E+00  0.0000E+00  0.0000E+00  0.0000E+00  0.0000E+00
    -22.394  0.0000E+00  0.0000E+00  0.0000E+00  0.0000E+00  0.0000E+00  0.0000E+00  0.0000E+00  0.0000E+00  0.0000E+00
    -22.240  0.0000E+00  0.0000E+00  0.0000E+00  0.0000E+00  0.0000E+00  0.0000E+00  0.0000E+00  0.0000E+00  0.0000E+00
    -22.086  0.0000E+00  0.0000E+00  0.0000E+00  0.0000E+00  0.0000E+00  0.0000E+00  0.0000E+00  0.0000E+00  0.0000E+00
    -21.932  0.0000E+00  0.0000E+00  0.0000E+00  0.0000E+00  0.0000E+00  0.0000E+00  0.0000E+00  0.0000E+00  0.0000E+00
    -21.778  0.0000E+00  0.0000E+00  0.0000E+00  0.0000E+00  0.0000E+00  0.0000E+00  0.0000E+00  0.0000E+00  0.0000E+00
    -21.624  0.0000E+00  0.0000E+00  0.0000E+00  0.0000E+00  0.0000E+00  0.0000E+00  0.0000E+00  0.0000E+00  0.0000E+00
    -21.470  0.0000E+00  0.0000E+00  0.0000E+00  0.0000E+00  0.0000E+00  0.0000E+00  0.0000E+00  0.0000E+00  0.0000E+00
    -21.316  0.0000E+00  0.0000E+00  0.0000E+00  0.0000E+00  0.0000E+00  0.0000E+00  0.0000E+00  0.0000E+00  0.0000E+00
    -21.163  0.0000E+00  0.0000E+00  0.0000E+00  0.0000E+00  0.0000E+00  0.0000E+00  0.0000E+00  0.0000E+00  0.0000E+00
    -21.009  0.0000E+00  0.0000E+00  0.0000E+00  0.0000E+00  0.0000E+00  0.0000E+00  0.0000E+00  0.0000E+00  0.0000E+00
    -20.855  0.0000E+00  0.0000E+00  0.0000E+00  0.0000E+00  0.0000E+00  0.0000E+00  0.0000E+00  0.0000E+00  0.0000E+00
    -20.701  0.0000E+00  0.0000E+00  0.0000E+00  0.0000E+00  0.0000E+00  0.0000E+00  0.0000E+00  0.0000E+00  0.0000E+00
    -20.547  0.0000E+00  0.0000E+00  0.0000E+00  0.0000E+00  0.0000E+00  0.0000E+00  0.0000E+00  0.0000E+00  0.0000E+00
    -20.393  0.0000E+00  0.0000E+00  0.0000E+00  0.0000E+00  0.0000E+00  0.0000E+00  0.0000E+00  0.0000E+00  0.0000E+00
    -20.239  0.0000E+00  0.0000E+00  0.0000E+00  0.0000E+00  0.0000E+00  0.0000E+00  0.0000E+00  0.0000E+00  0.0000E+00
    -20.085  0.0000E+00  0.0000E+00  0.0000E+00  0.0000E+00  0.0000E+00  0.0000E+00  0.0000E+00  0.0000E+00  0.0000E+00
    -19.931  0.0000E+00  0.0000E+00  0.0000E+00  0.0000E+00  0.0000E+00  0.0000E+00  0.0000E+00  0.0000E+00  0.0000E+00
    -19.777  0.0000E+00  0.0000E+00  0.0000E+00  0.0000E+00  0.0000E+00  0.0000E+00  0.0000E+00  0.0000E+00  0.0000E+00
    -19.623  0.0000E+00  0.0000E+00  0.0000E+00  0.0000E+00  0.0000E+00  0.0000E+00  0.0000E+00  0.0000E+00  0.0000E+00
    -19.469  0.0000E+00  0.0000E+00  0.0000E+00  0.0000E+00  0.0000E+00  0.0000E+00  0.0000E+00  0.0000E+00  0.0000E+00
    -19.315  0.0000E+00  0.0000E+00  0.0000E+00  0.0000E+00  0.0000E+00  0.0000E+00  0.0000E+00  0.0000E+00  0.0000E+00
    -19.161  0.0000E+00  0.0000E+00  0.0000E+00  0.0000E+00  0.0000E+00  0.0000E+00  0.0000E+00  0.0000E+00  0.0000E+00