    3    3    1    1
  0.7396212E+02  0.3329085E-09  0.3329085E-09  0.2311800E-08  0.5000000E-15
  1.000000000000000E-004
  CAR 
 VSe2                                    
     23    150     16
 
  0.0000000E+00  0.0000000E+00  0.0000000E+00  0.6666667E-02
    1      -40.989089   1.000000
    2      -40.989086   1.000000
    3      -40.886656   1.000000
    4      -16.824826   1.000000
    5      -15.905147   1.000000
    6       -7.652984   1.000000
    7       -4.626256   1.000000
    8       -4.626253   1.000000
    9       -4.495174   1.000000
   10       -2.494825   0.918316
   11       -2.494823   0.918312
   12       -2.387714   0.308668
   13       -1.494934   0.000000
   14       -1.494933   0.000000
   15        0.906721   0.000000
   16        0.906722   0.000000
 
  0.0000000E+00  0.1020408E-01  0.0000000E+00  0.6666667E-02
    1      -40.989171   1.000000
    2      -40.989105   1.000000
    3      -40.886638   1.000000
    4      -16.823444   1.000000
    5      -15.904277   1.000000
    6       -7.651349   1.000000
    7       -4.653747   1.000000
    8       -4.625886   1.000000
    9       -4.469164   1.000000
   10       -2.499788   0.930774
   11       -2.498885   0.928622
   12       -2.390050   0.323353
   13       -1.496860   0.000000
   14       -1.492077   0.000000
   15        0.897958   0.000000
   16        0.905089   0.000000
 
  0.0000000E+00  0.2040816E-01  0.0000000E+00  0.6666667E-02
    1      -40.989446   1.000000
    2      -40.989170   1.000000
    3      -40.886587   1.000000
    4      -16.819293   1.000000
    5      -15.901670   1.000000
    6       -7.646447   1.000000
    7       -4.709081   1.000000
    8       -4.624782   1.000000
    9       -4.418301   1.000000
   10       -2.515676   0.961002
   11       -2.510874   0.953282
   12       -2.396154   0.363003
   13       -1.502361   0.000000
   14       -1.483706   0.000000
   15        0.872075   0.000000
   16        0.900216   0.000000
 
  0.0000000E+00  0.3061224E-01  0.0000000E+00  0.6666667E-02
    1      -40.989896   1.000000
    2      -40.989274   1.000000
    3      -40.886495   1.000000
    4      -16.812382   1.000000
    5      -15.897330   1.000000
    6       -7.638286   1.000000
    7       -4.772427   1.000000
    8       -4.622963   1.000000
    9       -4.362466   1.000000
   10       -2.544757   0.988592
   11       -2.530241   0.978304
   12       -2.403967   0.415930
   13       -1.510639   0.000000
   14       -1.470371   0.000000
   15        0.830266   0.000000
   16        0.892225   0.000000
 
  0.0000000E+00  0.4081633E-01  0.0000000E+00  0.6666667E-02
    1      -40.990532   1.000000
    2      -40.989425   1.000000
    3      -40.886365   1.000000
    4      -16.802719   1.000000
    5      -15.891268   1.000000
    6       -7.626881   1.000000
    7       -4.839077   1.000000
    8       -4.620460   1.000000
    9       -4.306467   1.000000
   10       -2.588971   0.998886
   11       -2.556183   0.993403
   12       -2.411775   0.470390
   13       -1.520568   0.000000
   14       -1.452884   0.000000
   15        0.774316   0.000000
   16        0.881282   0.000000
 
  0.0000000E+00  0.5102041E-01  0.0000000E+00  0.6666667E-02
    1      -40.991346   1.000000
    2      -40.989616   1.000000
    3      -40.886206   1.000000
    4      -16.790322   1.000000
    5      -15.883497   1.000000
    6       -7.612251   1.000000
    7       -4.907619   1.000000
    8       -4.617318   1.000000
    9       -4.251850   1.000000
   10       -2.648957   0.999981
   11       -2.587755   0.998804
   12       -2.419015   0.521413
   13       -1.530910   0.000000
   14       -1.432193   0.000000
   15        0.706390   0.000000
   16        0.867640   0.000000
 
  0.0000000E+00  0.6122449E-01  0.0000000E+00  0.6666667E-02
    1      -40.992326   1.000000
    2      -40.989845   1.000000
    3      -40.886005   1.000000
    4      -16.775208   1.000000
    5      -15.874033   1.000000
    6       -7.594421   1.000000
    7       -4.977459   1.000000
    8       -4.613593   1.000000
    9       -4.199391   1.000000
   10       -2.724315   1.000000
   11       -2.623978   0.999882
   12       -2.425878   0.569467
   13       -1.540526   0.000000
   14       -1.409282   0.000000
   15        0.628840   0.000000
   16        0.851605   0.000000
 
  0.0000000E+00  0.7142857E-01  0.0000000E+00  0.6666667E-02
    1      -40.993475   1.000000
    2      -40.990112   1.000000
    3      -40.885776   1.000000
    4      -16.757402   1.000000
    5      -15.862896   1.000000
    6       -7.573423   1.000000
    7       -5.048277   1.000000
    8       -4.609356   1.000000
    9       -4.149647   1.000000
   10       -2.814100   1.000000
   11       -2.663908   0.999994
   12       -2.432745   0.616541
   13       -1.548537   0.000000
   14       -1.385099   0.000000
   15        0.544021   0.000000
   16        0.833521   0.000000
 
  0.0000000E+00  0.8163265E-01  0.0000000E+00  0.6666667E-02
    1      -40.994788   1.000000
    2      -40.990418   1.000000
    3      -40.885507   1.000000
    4      -16.736936   1.000000
    5      -15.850113   1.000000
    6       -7.549296   1.000000
    7       -5.119866   1.000000
    8       -4.604690   1.000000
    9       -4.103130   1.000000
   10       -2.917044   1.000000
   11       -2.706673   1.000000
   12       -2.439959   0.664192
   13       -1.554373   0.000000
   14       -1.360508   0.000000
   15        0.454214   0.000000
   16        0.813773   0.000000
 
  0.0000000E+00  0.9183673E-01  0.0000000E+00  0.6666667E-02
    1      -40.996256   1.000000
    2      -40.990763   1.000000
    3      -40.885210   1.000000
    4      -16.713846   1.000000
    5      -15.835711   1.000000
    6       -7.522085   1.000000
    7       -5.192071   1.000000
    8       -4.599696   1.000000
    9       -4.060399   1.000000
   10       -3.031633   1.000000
   11       -2.751491   1.000000
   12       -2.447800   0.713128
   13       -1.557764   0.000000
   14       -1.336280   0.000000
   15        0.361566   0.000000
   16        0.792771   0.000000
 
  0.0000000E+00  0.1020408E+00  0.0000000E+00  0.6666667E-02
    1      -40.997884   1.000000
    2      -40.991144   1.000000
    3      -40.884878   1.000000
    4      -16.688167   1.000000
    5      -15.819723   1.000000
    6       -7.491843   1.000000
    7       -5.264777   1.000000
    8       -4.594485   1.000000
    9       -4.022167   1.000000
   10       -3.156103   1.000000
   11       -2.797666   1.000000
   12       -2.456505   0.763136
   13       -1.558680   0.000000
   14       -1.313081   0.000000
   15        0.268097   0.000000
   16        0.770943   0.000000
 
  0.0000000E+00  0.1122449E+00  0.0000000E+00  0.6666667E-02
    1      -40.999641   1.000000
    2      -40.991556   1.000000
    3      -40.884512   1.000000
    4      -16.659945   1.000000
    5      -15.802188   1.000000
    6       -7.458631   1.000000
    7       -5.337878   1.000000
    8       -4.589184   1.000000
    9       -3.989485   1.000000
   10       -3.288314   1.000000
   11       -2.844575   1.000000
   12       -2.466296   0.813135
   13       -1.557260   0.000000
   14       -1.291481   0.000000
   15        0.175703   0.000000
   16        0.748719   0.000000
 
  0.0000000E+00  0.1224490E+00  0.0000000E+00  0.6666667E-02
    1      -41.001545   1.000000
    2      -40.992003   1.000000
    3      -40.884120   1.000000
    4      -16.629229   1.000000
    5      -15.783146   1.000000
    6       -7.422520   1.000000
    7       -5.411290   1.000000
    8       -4.583934   1.000000
    9       -3.964292   1.000000
   10       -3.425284   1.000000
   11       -2.891667   1.000000
   12       -2.477395   0.861196
   13       -1.553760   0.000000
   14       -1.271960   0.000000
   15        0.086167   0.000000
   16        0.726515   0.000000
 
  0.0000000E+00  0.1326531E+00  0.0000000E+00  0.6666667E-02
    1      -41.003571   1.000000
    2      -40.992473   1.000000
    3      -40.883700   1.000000
    4      -16.596071   1.000000
    5      -15.762643   1.000000
    6       -7.383591   1.000000
    7       -5.484932   1.000000
    8       -4.578889   1.000000
    9       -3.951109   1.000000
   10       -3.561511   1.000000
   11       -2.938442   1.000000
   12       -2.490031   0.904748
   13       -1.548503   0.000000
   14       -1.254910   0.000000
   15        0.001181   0.000000
   16        0.704730   0.000000
 
  0.0000000E+00  0.1428571E+00  0.0000000E+00  0.6666667E-02
    1      -41.005726   1.000000
    2      -40.992978   1.000000
    3      -40.883265   1.000000
    4      -16.560535   1.000000
    5      -15.740731   1.000000
    6       -7.341936   1.000000
    7       -5.558737   1.000000
    8       -4.574217   1.000000
    9       -3.962766   1.000000
   10       -3.683269   1.000000
   11       -2.984447   1.000000
   12       -2.504440   0.941069
   13       -1.541847   0.000000
   14       -1.240646   0.000000
   15       -0.077668   0.000000
   16        0.683729   0.000000
 
  0.0000000E+00  0.1530612E+00  0.0000000E+00  0.6666667E-02
    1      -41.007990   1.000000
    2      -40.993510   1.000000
    3      -40.882808   1.000000
    4      -16.522686   1.000000
    5      -15.717465   1.000000
    6       -7.297663   1.000000
    7       -5.632639   1.000000
    8       -4.570097   1.000000
    9       -4.026813   1.000000
   10       -3.762186   1.000000
   11       -3.029266   1.000000
   12       -2.520846   0.968118
   13       -1.534153   0.000000
   14       -1.229396   0.000000
   15       -0.148903   0.000000
   16        0.663839   0.000000
 
  0.0000000E+00  0.1632653E+00  0.0000000E+00  0.6666667E-02
    1      -41.010353   1.000000
    2      -40.994066   1.000000
    3      -40.882326   1.000000
    4      -16.482600   1.000000
    5      -15.692905   1.000000
    6       -7.250893   1.000000
    7       -5.706583   1.000000
    8       -4.566711   1.000000
    9       -4.147874   1.000000
   10       -3.792885   1.000000
   11       -3.072519   1.000000
   12       -2.539443   0.985466
   13       -1.525753   0.000000
   14       -1.221316   0.000000
   15       -0.211206   0.000000
   16        0.645333   0.000000
 
  0.0000000E+00  0.1734694E+00  0.0000000E+00  0.6666667E-02
    1      -41.012812   1.000000
    2      -40.994642   1.000000
    3      -40.881829   1.000000
    4      -16.440362   1.000000
    5      -15.667119   1.000000
    6       -7.201772   1.000000
    7       -5.780516   1.000000
    8       -4.564250   1.000000
    9       -4.296697   1.000000
   10       -3.803912   1.000000
   11       -3.113854   1.000000
   12       -2.560364   0.994651
   13       -1.516926   0.000000
   14       -1.216483   0.000000
   15       -0.263473   0.000000
   16        0.628430   0.000000
 
  0.0000000E+00  0.1836735E+00  0.0000000E+00  0.6666667E-02
    1      -41.015355   1.000000
    2      -40.995244   1.000000
    3      -40.881310   1.000000
    4      -16.396057   1.000000
    5      -15.640180   1.000000
    6       -7.150470   1.000000
    7       -5.854396   1.000000
    8       -4.562905   1.000000
    9       -4.456323   1.000000
   10       -3.811550   1.000000
   11       -3.152953   1.000000
   12       -2.583651   0.998482
   13       -1.507863   0.000000
   14       -1.214900   0.000000
   15       -0.304873   0.000000
   16        0.613287   0.000000
 
  0.0000000E+00  0.1938776E+00  0.0000000E+00  0.6666667E-02
    1      -41.017969   1.000000
    2      -40.995857   1.000000
    3      -40.880778   1.000000
    4      -16.349781   1.000000
    5      -15.612164   1.000000
    6       -7.097191   1.000000
    7       -5.928182   1.000000
    8       -4.620528   1.000000
    9       -4.562852   1.000000
   10       -3.821335   1.000000
   11       -3.189531   1.000000
   12       -2.609219   0.999682
   13       -1.498642   0.000000
   14       -1.216499   0.000000
   15       -0.334909   0.000000
   16        0.600005   0.000000
 
  0.0000000E+00  0.2040816E+00  0.0000000E+00  0.6666667E-02
    1      -41.020639   1.000000
    2      -40.996482   1.000000
    3      -40.880225   1.000000
    4      -16.301641   1.000000
    5      -15.583152   1.000000
    6       -7.042189   1.000000
    7       -6.001837   1.000000
    8       -4.786524   1.000000
    9       -4.564258   1.000000
   10       -3.835329   1.000000
   11       -3.223340   1.000000
   12       -2.636838   0.999953
   13       -1.489227   0.000000
   14       -1.221151   0.000000
   15       -0.353441   0.000000
   16        0.588620   0.000000
 
  0.0000000E+00  0.2142857E+00  0.0000000E+00  0.6666667E-02
    1      -41.023358   1.000000
    2      -40.997119   1.000000
    3      -40.879664   1.000000
    4      -16.251750   1.000000
    5      -15.553235   1.000000
    6       -6.985796   1.000000
    7       -6.075321   1.000000
    8       -4.952637   1.000000
    9       -4.567265   1.000000
   10       -3.854390   1.000000
   11       -3.254179   1.000000
   12       -2.666146   0.999995
   13       -1.479484   0.000000
   14       -1.228669   0.000000
   15       -0.360692   0.000000
   16        0.579116   0.000000
 
  0.0000000E+00  0.2244898E+00  0.0000000E+00  0.6666667E-02
    1      -41.026105   1.000000
    2      -40.997770   1.000000
    3      -40.879089   1.000000
    4      -16.200239   1.000000
    5      -15.522511   1.000000
    6       -6.928460   1.000000
    7       -6.148577   1.000000
    8       -5.117590   1.000000
    9       -4.571981   1.000000
   10       -3.878845   1.000000
   11       -3.281895   1.000000
   12       -2.696664   1.000000
   13       -1.469219   0.000000
   14       -1.238818   0.000000
   15       -0.357195   0.000000
   16        0.571429   0.000000
 
  0.0000000E+00  0.2346939E+00  0.0000000E+00  0.6666667E-02
    1      -41.028890   1.000000
    2      -40.998425   1.000000
    3      -40.878516   1.000000
    4      -16.147239   1.000000
    5      -15.491077   1.000000
    6       -6.870842   1.000000
    7       -6.221478   1.000000
    8       -5.280204   1.000000
    9       -4.578473   1.000000
   10       -3.908714   1.000000
   11       -3.306391   1.000000
   12       -2.727848   1.000000
   13       -1.458223   0.000000
   14       -1.251331   0.000000
   15       -0.343729   0.000000
   16        0.565456   0.000000
 
  0.0000000E+00  0.2448980E+00  0.0000000E+00  0.6666667E-02
    1      -41.031688   1.000000
    2      -40.999082   1.000000
    3      -40.877939   1.000000
    4      -16.092895   1.000000
    5      -15.459042   1.000000
    6       -6.814022   1.000000
    7       -6.293705   1.000000
    8       -5.439211   1.000000
    9       -4.586762   1.000000
   10       -3.943792   1.000000
   11       -3.327630   1.000000
   12       -2.759137   1.000000
   13       -1.446314   0.000000
   14       -1.265908   0.000000
   15       -0.321222   0.000000
   16        0.561070   0.000000
 
  0.0000000E+00  0.2551020E+00  0.0000000E+00  0.6666667E-02
    1      -41.034491   1.000000
    2      -40.999746   1.000000
    3      -40.877360   1.000000
    4      -16.037369   1.000000
    5      -15.426519   1.000000
    6       -6.760025   1.000000
    7       -6.364350   1.000000
    8       -5.593082   1.000000
    9       -4.596820   1.000000
   10       -3.983690   1.000000
   11       -3.345638   1.000000
   12       -2.790010   1.000000
   13       -1.433369   0.000000
   14       -1.282239   0.000000
   15       -0.290672   0.000000
   16        0.558114   0.000000
 
  0.0000000E+00  0.2653061E+00  0.0000000E+00  0.6666667E-02
    1      -41.037283   1.000000
    2      -41.000398   1.000000
    3      -40.876777   1.000000
    4      -15.980828   1.000000
    5      -15.393628   1.000000
    6       -6.713419   1.000000
    7       -6.430580   1.000000
    8       -5.739734   1.000000
    9       -4.608566   1.000000
   10       -4.027860   1.000000
   11       -3.360499   1.000000
   12       -2.820025   1.000000
   13       -1.419342   0.000000
   14       -1.300003   0.000000
   15       -0.253094   0.000000
   16        0.556430   0.000000
 
  0.0000000E+00  0.2755102E+00  0.0000000E+00  0.6666667E-02
    1      -41.040069   1.000000
    2      -41.001050   1.000000
    3      -40.876206   1.000000
    4      -15.923460   1.000000
    5      -15.360499   1.000000
    6       -6.686199   1.000000
    7       -6.483284   1.000000
    8       -5.875997   1.000000
    9       -4.621875   1.000000
   10       -4.075628   1.000000
   11       -3.372355   1.000000
   12       -2.848849   1.000000
   13       -1.404257   0.000000
   14       -1.318887   0.000000
   15       -0.209484   0.000000
   16        0.555844   0.000000
 
  0.0000000E+00  0.2857143E+00  0.0000000E+00  0.6666667E-02
    1      -41.042819   1.000000
    2      -41.001699   1.000000
    3      -40.875638   1.000000
    4      -15.865464   1.000000
    5      -15.327263   1.000000
    6       -6.700892   1.000000
    7       -6.505110   1.000000
    8       -5.996436   1.000000
    9       -4.636577   1.000000
   10       -4.126216   1.000000
   11       -3.381399   1.000000
   12       -2.876256   1.000000
   13       -1.388202   0.000000
   14       -1.338583   0.000000
   15       -0.160781   0.000000
   16        0.556195   0.000000
 
  0.0000000E+00  0.2959184E+00  0.0000000E+00  0.6666667E-02
    1      -41.045523   1.000000
    2      -41.002341   1.000000
    3      -40.875071   1.000000
    4      -15.807053   1.000000
    5      -15.294061   1.000000
    6       -6.758720   1.000000
    7       -6.504500   1.000000
    8       -6.091165   1.000000
    9       -4.652470   1.000000
   10       -4.178784   1.000000
   11       -3.387859   1.000000
   12       -2.902120   1.000000
   13       -1.371313   0.000000
   14       -1.358796   0.000000
   15       -0.107878   0.000000
   16        0.557324   0.000000
 
  0.0000000E+00  0.3061224E+00  0.0000000E+00  0.6666667E-02
    1      -41.048173   1.000000
    2      -41.002971   1.000000
    3      -40.874518   1.000000
    4      -15.748460   1.000000
    5      -15.261038   1.000000
    6       -6.839040   1.000000
    7       -6.516602   1.000000
    8       -6.145507   1.000000
    9       -4.669330   1.000000
   10       -4.232465   1.000000
   11       -3.391992   1.000000
   12       -2.926406   1.000000
   13       -1.379256   0.000000
   14       -1.353766   0.000000
   15       -0.051617   0.000000
   16        0.559082   0.000000
 
  0.0000000E+00  0.3163265E+00  0.0000000E+00  0.6666667E-02
    1      -41.050769   1.000000
    2      -41.003572   1.000000
    3      -40.873981   1.000000
    4      -15.689936   1.000000
    5      -15.228345   1.000000
    6       -6.931300   1.000000
    7       -6.558222   1.000000
    8       -6.153059   1.000000
    9       -4.686916   1.000000
   10       -4.286383   1.000000
   11       -3.394070   1.000000
   12       -2.949136   1.000000
   13       -1.399709   0.000000
   14       -1.335759   0.000000
   15        0.007194   0.000000
   16        0.561334   0.000000
 
  0.0000000E+00  0.3265306E+00  0.0000000E+00  0.6666667E-02
    1      -41.053293   1.000000
    2      -41.004164   1.000000
    3      -40.873458   1.000000
    4      -15.631741   1.000000
    5      -15.196138   1.000000
    6       -7.031367   1.000000
    7       -6.619808   1.000000
    8       -6.127379   1.000000
    9       -4.704986   1.000000
   10       -4.339680   1.000000
   11       -3.394380   1.000000
   12       -2.970373   1.000000
   13       -1.419927   0.000000
   14       -1.317501   0.000000
   15        0.067783   0.000000
   16        0.563952   0.000000
 
  0.0000000E+00  0.3367347E+00  0.0000000E+00  0.6666667E-02
    1      -41.055724   1.000000
    2      -41.004740   1.000000
    3      -40.872951   1.000000
    4      -15.574162   1.000000
    5      -15.164582   1.000000
    6       -7.136503   1.000000
    7       -6.687337   1.000000
    8       -6.085136   1.000000
    9       -4.723297   1.000000
   10       -4.391534   1.000000
   11       -3.393201   1.000000
   12       -2.990204   1.000000
   13       -1.439707   0.000000
   14       -1.299203   0.000000
   15        0.129395   0.000000
   16        0.566830   0.000000
 
  0.0000000E+00  0.3469388E+00  0.0000000E+00  0.6666667E-02
    1      -41.058070   1.000000
    2      -41.005292   1.000000
    3      -40.872470   1.000000
    4      -15.517494   1.000000
    5      -15.133837   1.000000
    6       -7.244204   1.000000
    7       -6.753730   1.000000
    8       -6.035849   1.000000
    9       -4.741614   1.000000
   10       -4.441173   1.000000
   11       -3.390807   1.000000
   12       -3.008729   1.000000
   13       -1.458868   0.000000
   14       -1.281078   0.000000
   15        0.191279   0.000000
   16        0.569869   0.000000
 
  0.0000000E+00  0.3571429E+00  0.0000000E+00  0.6666667E-02
    1      -41.060314   1.000000
    2      -41.005815   1.000000
    3      -40.872005   1.000000
    4      -15.462052   1.000000
    5      -15.104069   1.000000
    6       -7.352188   1.000000
    7       -6.816501   1.000000
    8       -5.984241   1.000000
    9       -4.759715   1.000000
   10       -4.487882   1.000000
   11       -3.387456   1.000000
   12       -3.026038   1.000000
   13       -1.477250   0.000000
   14       -1.263330   0.000000
   15        0.252693   0.000000
   16        0.572987   0.000000
 
  0.0000000E+00  0.3673469E+00  0.0000000E+00  0.6666667E-02
    1      -41.062434   1.000000
    2      -41.006314   1.000000
    3      -40.871555   1.000000
    4      -15.408166   1.000000
    5      -15.075448   1.000000
    6       -7.458504   1.000000
    7       -6.874990   1.000000
    8       -5.932887   1.000000
    9       -4.777394   1.000000
   10       -4.531010   1.000000
   11       -3.383393   1.000000
   12       -3.042217   1.000000
   13       -1.494722   0.000000
   14       -1.246149   0.000000
   15        0.312904   0.000000
   16        0.576111   0.000000
 
  0.0000000E+00  0.3775510E+00  0.0000000E+00  0.6666667E-02
    1      -41.064443   1.000000
    2      -41.006787   1.000000
    3      -40.871139   1.000000
    4      -15.356182   1.000000
    5      -15.048139   1.000000
    6       -7.561561   1.000000
    7       -6.929134   1.000000
    8       -5.883398   1.000000
    9       -4.794460   1.000000
   10       -4.569996   1.000000
   11       -3.378838   1.000000
   12       -3.057335   1.000000
   13       -1.511171   0.000000
   14       -1.229717   0.000000
   15        0.371173   0.000000
   16        0.579178   0.000000
 
  0.0000000E+00  0.3877551E+00  0.0000000E+00  0.6666667E-02
    1      -41.066309   1.000000
    2      -41.007232   1.000000
    3      -40.870749   1.000000
    4      -15.306453   1.000000
    5      -15.022309   1.000000
    6       -7.660073   1.000000
    7       -6.979017   1.000000
    8       -5.836904   1.000000
    9       -4.810741   1.000000
   10       -4.604381   1.000000
   11       -3.373995   1.000000
   12       -3.071441   1.000000
   13       -1.526502   0.000000
   14       -1.214192   0.000000
   15        0.426790   0.000000
   16        0.582137   0.000000
 
  0.0000000E+00  0.3979592E+00  0.0000000E+00  0.6666667E-02
    1      -41.068056   1.000000
    2      -41.007646   1.000000
    3      -40.870393   1.000000
    4      -15.259347   1.000000
    5      -14.998124   1.000000
    6       -7.752998   1.000000
    7       -7.024724   1.000000
    8       -5.794246   1.000000
    9       -4.826083   1.000000
   10       -4.633843   1.000000
   11       -3.369039   1.000000
   12       -3.084566   1.000000
   13       -1.540641   0.000000
   14       -1.199719   0.000000
   15        0.479071   0.000000
   16        0.584946   0.000000
 
  0.0000000E+00  0.4081633E+00  0.0000000E+00  0.6666667E-02
    1      -41.069647   1.000000
    2      -41.008026   1.000000
    3      -40.870062   1.000000
    4      -15.215231   1.000000
    5      -14.975741   1.000000
    6       -7.839461   1.000000
    7       -7.066294   1.000000
    8       -5.756034   1.000000
    9       -4.840347   1.000000
   10       -4.658230   1.000000
   11       -3.364133   1.000000
   12       -3.096711   1.000000
   13       -1.553527   0.000000
   14       -1.186416   0.000000
   15        0.527402   0.000000
   16        0.587570   0.000000
 
  0.0000000E+00  0.4183673E+00  0.0000000E+00  0.6666667E-02
    1      -41.071093   1.000000
    2      -41.008365   1.000000
    3      -40.869765   1.000000
    4      -15.174472   1.000000
    5      -14.955310   1.000000
    6       -7.918726   1.000000
    7       -7.103724   1.000000
    8       -5.722659   1.000000
    9       -4.853412   1.000000
   10       -4.677590   1.000000
   11       -3.359412   1.000000
   12       -3.107860   1.000000
   13       -1.565118   0.000000
   14       -1.174381   0.000000
   15        0.571241   0.000000
   16        0.589979   0.000000
 
  0.0000000E+00  0.4285714E+00  0.0000000E+00  0.6666667E-02
    1      -41.072371   1.000000
    2      -41.008669   1.000000
    3      -40.869497   1.000000
    4      -15.137432   1.000000
    5      -14.936970   1.000000
    6       -7.990155   1.000000
    7       -7.136979   1.000000
    8       -5.694286   1.000000
    9       -4.865173   1.000000
   10       -4.692193   1.000000
   11       -3.354995   1.000000
   12       -3.117970   1.000000
   13       -1.575381   0.000000
   14       -1.163687   0.000000
   15        0.592148   0.000000
   16        0.610170   0.000000
 
  0.0000000E+00  0.4387755E+00  0.0000000E+00  0.6666667E-02
    1      -41.073500   1.000000
    2      -41.008929   1.000000
    3      -40.869262   1.000000
    4      -15.104462   1.000000
    5      -14.920850   1.000000
    6       -8.053199   1.000000
    7       -7.166003   1.000000
    8       -5.670863   1.000000
    9       -4.875540   1.000000
   10       -4.702534   1.000000
   11       -3.350982   1.000000
   12       -3.126982   1.000000
   13       -1.584297   0.000000
   14       -1.154390   0.000000
   15        0.594061   0.000000
   16        0.643890   0.000000
 
  0.0000000E+00  0.4489796E+00  0.0000000E+00  0.6666667E-02
    1      -41.074457   1.000000
    2      -41.009155   1.000000
    3      -40.869056   1.000000
    4      -15.075893   1.000000
    5      -14.907058   1.000000
    6       -8.107376   1.000000
    7       -7.190726   1.000000
    8       -5.652141   1.000000
    9       -4.884436   1.000000
   10       -4.709288   1.000000
   11       -3.347456   1.000000
   12       -3.134819   1.000000
   13       -1.591849   0.000000
   14       -1.146516   0.000000
   15        0.595702   0.000000
   16        0.672252   0.000000
 
  0.0000000E+00  0.4591837E+00  0.0000000E+00  0.6666667E-02
    1      -41.075259   1.000000
    2      -41.009342   1.000000
    3      -40.868895   1.000000
    4      -15.052034   1.000000
    5      -14.895677   1.000000
    6       -8.152277   1.000000
    7       -7.211078   1.000000
    8       -5.637729   1.000000
    9       -4.891798   1.000000
   10       -4.713256   1.000000
   11       -3.344484   1.000000
   12       -3.141399   1.000000
   13       -1.598033   0.000000
   14       -1.140083   0.000000
   15        0.597057   0.000000
   16        0.695222   0.000000
 
  0.0000000E+00  0.4693878E+00  0.0000000E+00  0.6666667E-02
    1      -41.075876   1.000000
    2      -41.009485   1.000000
    3      -40.868765   1.000000
    4      -15.033158   1.000000
    5      -14.886772   1.000000
    6       -8.187561   1.000000
    7       -7.226988   1.000000
    8       -5.627170   1.000000
    9       -4.897576   1.000000
   10       -4.715265   1.000000
   11       -3.342120   1.000000
   12       -3.146630   1.000000
   13       -1.602842   0.000000
   14       -1.135091   0.000000
   15        0.598122   0.000000
   16        0.712877   0.000000
 
  0.0000000E+00  0.4795918E+00  0.0000000E+00  0.6666667E-02
    1      -41.076319   1.000000
    2      -41.009583   1.000000
    3      -40.868670   1.000000
    4      -15.019494   1.000000
    5      -14.880386   1.000000
    6       -8.212957   1.000000
    7       -7.238398   1.000000
    8       -5.620013   1.000000
    9       -4.901729   1.000000
   10       -4.716074   1.000000
   11       -3.340403   1.000000
   12       -3.150432   1.000000
   13       -1.606277   0.000000
   14       -1.131534   0.000000
   15        0.598887   0.000000
   16        0.725341   0.000000
 
  0.0000000E+00  0.4897959E+00  0.0000000E+00  0.6666667E-02
    1      -41.076572   1.000000
    2      -41.009639   1.000000
    3      -40.868607   1.000000
    4      -15.011222   1.000000
    5      -14.876548   1.000000
    6       -8.228274   1.000000
    7       -7.245263   1.000000
    8       -5.615883   1.000000
    9       -4.904232   1.000000
   10       -4.716295   1.000000
   11       -3.339362   1.000000
   12       -3.152741   1.000000
   13       -1.608335   0.000000
   14       -1.129403   0.000000
   15        0.599349   0.000000
   16        0.732754   0.000000
 
  0.0000000E+00  0.5000000E+00  0.0000000E+00  0.6666667E-02
    1      -41.076656   1.000000
    2      -41.009655   1.000000
    3      -40.868588   1.000000
    4      -15.008452   1.000000
    5      -14.875268   1.000000
    6       -8.233393   1.000000
    7       -7.247554   1.000000
    8       -5.614535   1.000000
    9       -4.905068   1.000000
   10       -4.716324   1.000000
   11       -3.339012   1.000000
   12       -3.153516   1.000000
   13       -1.609022   0.000000
   14       -1.128693   0.000000
   15        0.599503   0.000000
   16        0.735213   0.000000
 
  0.0000000E+00  0.5000000E+00  0.0000000E+00  0.6666667E-02
    1      -41.076656   1.000000
    2      -41.009655   1.000000
    3      -40.868588   1.000000
    4      -15.008452   1.000000
    5      -14.875268   1.000000