PROCAR lm decomposed
# of k-points:  150         # of bands:   16         # of ions:    3

 k-point     1 :    0.00000000 0.00000000 0.00000000     weight = 0.00666667

band     1 # energy  -40.98908941 # occ.  2.00000000
 
ion      s     py     pz     px    dxy    dyz    dz2    dxz  x2-y2    tot
    1  0.000  0.250  0.000  0.741  0.000  0.000  0.000  0.000  0.000  0.991
    2  0.000  0.000  0.000  0.000  0.000  0.000  0.000  0.000  0.000  0.000
    3  0.000  0.000  0.000  0.000  0.000  0.000  0.000  0.000  0.000  0.000
tot    0.000  0.250  0.000  0.741  0.000  0.000  0.000  0.000  0.000  0.992
 
band     2 # energy  -40.98908628 # occ.  2.00000000
 
ion      s     py     pz     px    dxy    dyz    dz2    dxz  x2-y2    tot
    1  0.000  0.741  0.000  0.250  0.000  0.000  0.000  0.000  0.000  0.991
    2  0.000  0.000  0.000  0.000  0.000  0.000  0.000  0.000  0.000  0.000
    3  0.000  0.000  0.000  0.000  0.000  0.000  0.000  0.000  0.000  0.000
tot    0.000  0.741  0.000  0.250  0.000  0.000  0.000  0.000  0.000  0.992
 
band     3 # energy  -40.88665552 # occ.  2.00000000
 
ion      s     py     pz     px    dxy    dyz    dz2    dxz  x2-y2    tot
    1  0.000  0.000  0.987  0.000  0.000  0.000  0.000  0.000  0.000  0.987
    2  0.001  0.000  0.000  0.000  0.000  0.000  0.000  0.000  0.000  0.001
    3  0.001  0.000  0.000  0.000  0.000  0.000  0.000  0.000  0.000  0.001
tot    0.001  0.000  0.987  0.000  0.000  0.000  0.000  0.000  0.000  0.989
 
band     4 # energy  -16.82482623 # occ.  2.00000000
 
ion      s     py     pz     px    dxy    dyz    dz2    dxz  x2-y2    tot
    1  0.055  0.000  0.000  0.000  0.000  0.000  0.000  0.000  0.000  0.055
    2  0.308  0.000  0.003  0.000  0.000  0.000  0.000  0.000  0.000  0.312
    3  0.302  0.000  0.003  0.000  0.000  0.000  0.000  0.000  0.000  0.306
tot    0.665  0.000  0.007  0.000  0.000  0.000  0.000  0.000  0.000  0.672
 
band     5 # energy  -15.90514673 # occ.  2.00000000
 
ion      s     py     pz     px    dxy    dyz    dz2    dxz  x2-y2    tot
    1  0.000  0.000  0.022  0.000  0.000  0.000  0.000  0.000  0.000  0.022
    2  0.338  0.000  0.000  0.000  0.000  0.000  0.000  0.000  0.000  0.338
    3  0.344  0.000  0.000  0.000  0.000  0.000  0.000  0.000  0.000  0.344
tot    0.681  0.000  0.022  0.000  0.000  0.000  0.000  0.000  0.000  0.704
 
band     6 # energy   -7.65298399 # occ.  2.00000000
 
ion      s     py     pz     px    dxy    dyz    dz2    dxz  x2-y2    tot
    1  0.088  0.000  0.000  0.000  0.000  0.000  0.082  0.000  0.000  0.170
    2  0.018  0.000  0.153  0.000  0.000  0.000  0.002  0.000  0.000  0.173
    3  0.018  0.000  0.152  0.000  0.000  0.000  0.002  0.000  0.000  0.172
tot    0.124  0.000  0.304  0.000  0.000  0.000  0.086  0.000  0.000  0.515
 
band     7 # energy   -4.62625649 # occ.  2.00000000
 
ion      s     py     pz     px    dxy    dyz    dz2    dxz  x2-y2    tot
    1  0.000  0.000  0.000  0.000  0.285  0.036  0.000  0.109  0.094  0.524
    2  0.000  0.032  0.000  0.098  0.000  0.002  0.000  0.005  0.000  0.137
    3  0.000  0.032  0.000  0.097  0.000  0.002  0.000  0.005  0.000  0.136
tot    0.000  0.064  0.000  0.195  0.285  0.039  0.000  0.118  0.094  0.796
 
band     8 # energy   -4.62625333 # occ.  2.00000000
 
ion      s     py     pz     px    dxy    dyz    dz2    dxz  x2-y2    tot
    1  0.000  0.000  0.000  0.000  0.094  0.109  0.000  0.036  0.285  0.524
    2  0.000  0.098  0.000  0.032  0.000  0.005  0.000  0.002  0.000  0.137
    3  0.000  0.097  0.000  0.032  0.000  0.005  0.000  0.002  0.000  0.136
tot    0.000  0.195  0.000  0.064  0.094  0.118  0.000  0.039  0.285  0.796
 
band     9 # energy   -4.49517359 # occ.  2.00000000
 
ion      s     py     pz     px    dxy    dyz    dz2    dxz  x2-y2    tot
    1  0.000  0.000  0.027  0.000  0.000  0.000  0.000  0.000  0.000  0.027
    2  0.000  0.000  0.248  0.000  0.000  0.000  0.000  0.000  0.000  0.248
    3  0.000  0.000  0.248  0.000  0.000  0.000  0.000  0.000  0.000  0.249
tot    0.001  0.000  0.523  0.000  0.000  0.000  0.000  0.000  0.000  0.523
 
band    10 # energy   -2.49482480 # occ.  1.83663214
 
ion      s     py     pz     px    dxy    dyz    dz2    dxz  x2-y2    tot
    1  0.000  0.000  0.000  0.000  0.198  0.147  0.000  0.440  0.066  0.850
    2  0.000  0.001  0.000  0.003  0.006  0.000  0.000  0.000  0.002  0.012
    3  0.000  0.001  0.000  0.003  0.006  0.000  0.000  0.000  0.002  0.012
tot    0.000  0.002  0.000  0.006  0.210  0.147  0.000  0.440  0.070  0.874
 
band    11 # energy   -2.49482332 # occ.  1.83662424
 
ion      s     py     pz     px    dxy    dyz    dz2    dxz  x2-y2    tot
    1  0.000  0.000  0.000  0.000  0.066  0.440  0.000  0.147  0.198  0.850
    2  0.000  0.003  0.000  0.001  0.002  0.000  0.000  0.000  0.006  0.012
    3  0.000  0.003  0.000  0.001  0.002  0.000  0.000  0.000  0.006  0.012
tot    0.000  0.006  0.000  0.002  0.070  0.440  0.000  0.147  0.210  0.874
 
band    12 # energy   -2.38771443 # occ.  0.61733694
 
ion      s     py     pz     px    dxy    dyz    dz2    dxz  x2-y2    tot
    1  0.010  0.000  0.000  0.000  0.000  0.000  0.699  0.000  0.000  0.709
    2  0.001  0.000  0.032  0.000  0.000  0.000  0.008  0.000  0.000  0.041
    3  0.001  0.000  0.032  0.000  0.000  0.000  0.008  0.000  0.000  0.041
tot    0.013  0.000  0.064  0.000  0.000  0.000  0.715  0.000  0.000  0.791
 
band    13 # energy   -1.49493446 # occ.  0.00000000
 
ion      s     py     pz     px    dxy    dyz    dz2    dxz  x2-y2    tot
    1  0.000  0.004  0.000  0.014  0.000  0.000  0.000  0.000  0.000  0.018
    2  0.000  0.087  0.000  0.264  0.000  0.000  0.000  0.000  0.000  0.351
    3  0.000  0.087  0.000  0.263  0.000  0.000  0.000  0.001  0.000  0.350
tot    0.000  0.178  0.000  0.540  0.000  0.000  0.000  0.001  0.000  0.720
 
band    14 # energy   -1.49493263 # occ.  0.00000000
 
ion      s     py     pz     px    dxy    dyz    dz2    dxz  x2-y2    tot
    1  0.000  0.014  0.000  0.004  0.000  0.000  0.000  0.000  0.000  0.018
    2  0.000  0.264  0.000  0.087  0.000  0.000  0.000  0.000  0.000  0.351
    3  0.000  0.263  0.000  0.087  0.000  0.001  0.000  0.000  0.000  0.350
tot    0.000  0.540  0.000  0.178  0.000  0.001  0.000  0.000  0.000  0.720
 
band    15 # energy    0.90672091 # occ.  0.00000000
 
ion      s     py     pz     px    dxy    dyz    dz2    dxz  x2-y2    tot
    1  0.000  0.000  0.000  0.000  0.037  0.128  0.000  0.025  0.191  0.381
    2  0.000  0.183  0.000  0.036  0.000  0.003  0.000  0.001  0.001  0.225
    3  0.000  0.185  0.000  0.036  0.000  0.003  0.000  0.001  0.001  0.227
tot    0.000  0.368  0.000  0.072  0.038  0.134  0.000  0.026  0.193  0.832
 
band    16 # energy    0.90672222 # occ.  0.00000000
 
ion      s     py     pz     px    dxy    dyz    dz2    dxz  x2-y2    tot
    1  0.000  0.000  0.000  0.000  0.191  0.025  0.000  0.128  0.037  0.381
    2  0.000  0.036  0.000  0.183  0.001  0.001  0.000  0.003  0.000  0.225
    3  0.000  0.036  0.000  0.185  0.001  0.001  0.000  0.003  0.000  0.227
tot    0.000  0.072  0.000  0.368  0.193  0.026  0.000  0.134  0.038  0.832
 

 k-point     2 :    0.00000000 0.01020408 0.00000000     weight = 0.00666667

band     1 # energy  -40.98917061 # occ.  2.00000000
 
ion      s     py     pz     px    dxy    dyz    dz2    dxz  x2-y2    tot
    1  0.000  0.991  0.000  0.000  0.000  0.000  0.000  0.000  0.000  0.991
    2  0.000  0.000  0.000  0.000  0.000  0.000  0.000  0.000  0.000  0.000
    3  0.000  0.000  0.000  0.000  0.000  0.000  0.000  0.000  0.000  0.000
tot    0.000  0.991  0.000  0.000  0.000  0.000  0.000  0.000  0.000  0.992
 
band     2 # energy  -40.98910473 # occ.  2.00000000
 
ion      s     py     pz     px    dxy    dyz    dz2    dxz  x2-y2    tot
    1  0.000  0.000  0.000  0.991  0.000  0.000  0.000  0.000  0.000  0.991
    2  0.000  0.000  0.000  0.000  0.000  0.000  0.000  0.000  0.000  0.000
    3  0.000  0.000  0.000  0.000  0.000  0.000  0.000  0.000  0.000  0.000
tot    0.000  0.000  0.000  0.991  0.000  0.000  0.000  0.000  0.000  0.992
 
band     3 # energy  -40.88663804 # occ.  2.00000000
 
ion      s     py     pz     px    dxy    dyz    dz2    dxz  x2-y2    tot
    1  0.000  0.000  0.987  0.000  0.000  0.000  0.000  0.000  0.000  0.987
    2  0.001  0.000  0.000  0.000  0.000  0.000  0.000  0.000  0.000  0.001
    3  0.001  0.000  0.000  0.000  0.000  0.000  0.000  0.000  0.000  0.001
tot    0.001  0.000  0.987  0.000  0.000  0.000  0.000  0.000  0.000  0.989
 
band     4 # energy  -16.82344369 # occ.  2.00000000
 
ion      s     py     pz     px    dxy    dyz    dz2    dxz  x2-y2    tot
    1  0.055  0.000  0.000  0.000  0.000  0.000  0.000  0.000  0.000  0.055
    2  0.308  0.000  0.003  0.000  0.000  0.000  0.000  0.000  0.000  0.312
    3  0.302  0.000  0.003  0.000  0.000  0.000  0.000  0.000  0.000  0.306
tot    0.665  0.000  0.007  0.000  0.000  0.000  0.000  0.000  0.000  0.672
 
band     5 # energy  -15.90427703 # occ.  2.00000000
 
ion      s     py     pz     px    dxy    dyz    dz2    dxz  x2-y2    tot
    1  0.000  0.000  0.022  0.000  0.000  0.000  0.000  0.000  0.000  0.022
    2  0.338  0.000  0.000  0.000  0.000  0.000  0.000  0.000  0.000  0.338
    3  0.344  0.000  0.000  0.000  0.000  0.000  0.000  0.000  0.000  0.344
tot    0.681  0.000  0.022  0.000  0.000  0.000  0.000  0.000  0.000  0.704
 
band     6 # energy   -7.65134892 # occ.  2.00000000
 
ion      s     py     pz     px    dxy    dyz    dz2    dxz  x2-y2    tot
    1  0.088  0.000  0.000  0.000  0.000  0.000  0.082  0.000  0.000  0.170
    2  0.018  0.000  0.153  0.000  0.000  0.000  0.002  0.000  0.000  0.173
    3  0.018  0.000  0.152  0.000  0.000  0.000  0.002  0.000  0.000  0.172
tot    0.124  0.000  0.304  0.000  0.000  0.000  0.086  0.000  0.000  0.515
 
band     7 # energy   -4.65374736 # occ.  2.00000000
 
ion      s     py     pz     px    dxy    dyz    dz2    dxz  x2-y2    tot
    1  0.000  0.000  0.003  0.000  0.000  0.127  0.000  0.000  0.326  0.456
    2  0.000  0.111  0.034  0.000  0.000  0.005  0.000  0.000  0.000  0.151
    3  0.000  0.111  0.034  0.000  0.000  0.005  0.000  0.000  0.000  0.151
tot    0.000  0.222  0.071  0.000  0.000  0.138  0.000  0.000  0.327  0.759
 
band     8 # energy   -4.62588553 # occ.  2.00000000
 
ion      s     py     pz     px    dxy    dyz    dz2    dxz  x2-y2    tot
    1  0.000  0.000  0.000  0.000  0.379  0.000  0.000  0.145  0.000  0.524
    2  0.000  0.000  0.000  0.130  0.000  0.000  0.000  0.006  0.000  0.137
    3  0.000  0.000  0.000  0.129  0.000  0.000  0.000  0.006  0.000  0.136
tot    0.000  0.000  0.000  0.259  0.379  0.000  0.000  0.158  0.000  0.796
 
band     9 # energy   -4.46916367 # occ.  2.00000000
 
ion      s     py     pz     px    dxy    dyz    dz2    dxz  x2-y2    tot
    1  0.000  0.000  0.024  0.000  0.000  0.017  0.000  0.000  0.053  0.094
    2  0.000  0.019  0.213  0.000  0.000  0.001  0.000  0.000  0.000  0.233
    3  0.000  0.018  0.214  0.000  0.000  0.001  0.000  0.000  0.000  0.234
tot    0.001  0.037  0.451  0.000  0.000  0.019  0.000  0.000  0.053  0.561
 
band    10 # energy   -2.49978832 # occ.  1.86154713
 
ion      s     py     pz     px    dxy    dyz    dz2    dxz  x2-y2    tot
    1  0.000  0.000  0.000  0.000  0.000  0.584  0.000  0.000  0.262  0.846
    2  0.000  0.006  0.000  0.000  0.000  0.000  0.000  0.000  0.008  0.014
    3  0.000  0.006  0.000  0.000  0.000  0.000  0.000  0.000  0.008  0.014
tot    0.000  0.011  0.000  0.000  0.000  0.584  0.001  0.000  0.278  0.873
 
band    11 # energy   -2.49888482 # occ.  1.85724417
 
ion      s     py     pz     px    dxy    dyz    dz2    dxz  x2-y2    tot
    1  0.000  0.000  0.000  0.000  0.263  0.000  0.000  0.584  0.000  0.846
    2  0.000  0.000  0.000  0.006  0.008  0.000  0.000  0.000  0.000  0.014
    3  0.000  0.000  0.000  0.006  0.008  0.000  0.000  0.000  0.000  0.013
tot    0.000  0.000  0.000  0.011  0.279  0.000  0.000  0.584  0.000  0.873
 
band    12 # energy   -2.39004989 # occ.  0.64670633
 
ion      s     py     pz     px    dxy    dyz    dz2    dxz  x2-y2    tot
    1  0.010  0.000  0.000  0.000  0.000  0.001  0.696  0.000  0.000  0.707
    2  0.002  0.001  0.031  0.000  0.000  0.000  0.008  0.000  0.000  0.042
    3  0.002  0.001  0.032  0.000  0.000  0.000  0.008  0.000  0.000  0.042
tot    0.013  0.002  0.063  0.000  0.000  0.001  0.712  0.000  0.000  0.791
 
band    13 # energy   -1.49685974 # occ.  0.00000000
 
ion      s     py     pz     px    dxy    dyz    dz2    dxz  x2-y2    tot
    1  0.000  0.018  0.000  0.000  0.000  0.002  0.002  0.000  0.002  0.024
    2  0.000  0.347  0.000  0.000  0.000  0.001  0.000  0.000  0.000  0.349
    3  0.000  0.346  0.000  0.000  0.000  0.001  0.000  0.000  0.000  0.347
tot    0.000  0.711  0.000  0.000  0.000  0.004  0.002  0.000  0.002  0.720
 
band    14 # energy   -1.49207685 # occ.  0.00000000
 
ion      s     py     pz     px    dxy    dyz    dz2    dxz  x2-y2    tot
    1  0.000  0.000  0.000  0.018  0.002  0.000  0.000  0.002  0.000  0.022
    2  0.000  0.000  0.000  0.349  0.000  0.000  0.000  0.001  0.000  0.350
    3  0.000  0.000  0.000  0.348  0.000  0.000  0.000  0.001  0.000  0.349
tot    0.000  0.000  0.000  0.715  0.002  0.000  0.000  0.004  0.000  0.721
 
band    15 # energy    0.89795770 # occ.  0.00000000
 
ion      s     py     pz     px    dxy    dyz    dz2    dxz  x2-y2    tot
    1  0.000  0.000  0.000  0.000  0.000  0.153  0.000  0.000  0.228  0.381
    2  0.000  0.218  0.000  0.000  0.000  0.004  0.000  0.000  0.002  0.224
    3  0.000  0.220  0.000  0.000  0.000  0.004  0.000  0.000  0.002  0.226
tot    0.001  0.438  0.000  0.000  0.000  0.161  0.000  0.000  0.231  0.831
 
band    16 # energy    0.90508853 # occ.  0.00000000
 
ion      s     py     pz     px    dxy    dyz    dz2    dxz  x2-y2    tot
    1  0.000  0.000  0.000  0.000  0.228  0.000  0.000  0.153  0.000  0.381
    2  0.000  0.000  0.000  0.219  0.002  0.000  0.000  0.004  0.000  0.225
    3  0.000  0.000  0.000  0.221  0.002  0.000  0.000  0.004  0.000  0.226
tot    0.000  0.000  0.000  0.440  0.231  0.000  0.000  0.161  0.000  0.832
 

 k-point     3 :    0.00000000 0.02040816 0.00000000     weight = 0.00666667

band     1 # energy  -40.98944649 # occ.  2.00000000
 
ion      s     py     pz     px    dxy    dyz    dz2    dxz  x2-y2    tot
    1  0.000  0.991  0.000  0.000  0.000  0.000  0.000  0.000  0.000  0.991
    2  0.000  0.000  0.000  0.000  0.000  0.000  0.000  0.000  0.000  0.000
    3  0.000  0.000  0.000  0.000  0.000  0.000  0.000  0.000  0.000  0.000
tot    0.000  0.991  0.000  0.000  0.000  0.000  0.000  0.000  0.000  0.992
 
band     2 # energy  -40.98917012 # occ.  2.00000000
 
ion      s     py     pz     px    dxy    dyz    dz2    dxz  x2-y2    tot
    1  0.000  0.000  0.000  0.991  0.000  0.000  0.000  0.000  0.000  0.991
    2  0.000  0.000  0.000  0.000  0.000  0.000  0.000  0.000  0.000  0.000
    3  0.000  0.000  0.000  0.000  0.000  0.000  0.000  0.000  0.000  0.000
tot    0.000  0.000  0.000  0.991  0.000  0.000  0.000  0.000  0.000  0.992
 
band     3 # energy  -40.88658663 # occ.  2.00000000
 
ion      s     py     pz     px    dxy    dyz    dz2    dxz  x2-y2    tot
    1  0.000  0.000  0.987  0.000  0.000  0.000  0.000  0.000  0.000  0.987
    2  0.001  0.000  0.000  0.000  0.000  0.000  0.000  0.000  0.000  0.001
    3  0.001  0.000  0.000  0.000  0.000  0.000  0.000  0.000  0.000  0.001
tot    0.001  0.000  0.987  0.000  0.000  0.000  0.000  0.000  0.000  0.989
 
band     4 # energy  -16.81929346 # occ.  2.00000000
 
ion      s     py     pz     px    dxy    dyz    dz2    dxz  x2-y2    tot
    1  0.054  0.000  0.000  0.000  0.000  0.000  0.000  0.000  0.000  0.055
    2  0.308  0.000  0.003  0.000  0.000  0.000  0.000  0.000  0.000  0.312
    3  0.302  0.000  0.003  0.000  0.000  0.000  0.000  0.000  0.000  0.306
tot    0.665  0.000  0.007  0.000  0.000  0.000  0.000  0.000  0.000  0.672
 
band     5 # energy  -15.90166980 # occ.  2.00000000
 
ion      s     py     pz     px    dxy    dyz    dz2    dxz  x2-y2    tot
    1  0.000  0.000  0.022  0.000  0.000  0.000  0.000  0.000  0.000  0.022
    2  0.338  0.000  0.000  0.000  0.000  0.000  0.000  0.000  0.000  0.338
    3  0.344  0.000  0.000  0.000  0.000  0.000  0.000  0.000  0.000  0.344
tot    0.681  0.000  0.022  0.000  0.000  0.000  0.000  0.000  0.000  0.704
 
band     6 # energy   -7.64644720 # occ.  2.00000000
 
ion      s     py     pz     px    dxy    dyz    dz2    dxz  x2-y2    tot
    1  0.088  0.000  0.000  0.000  0.000  0.000  0.082  0.000  0.000  0.170
    2  0.018  0.000  0.153  0.000  0.000  0.000  0.002  0.000  0.000  0.173
    3  0.018  0.000  0.152  0.000  0.000  0.000  0.002  0.000  0.000  0.172
tot    0.124  0.000  0.305  0.000  0.000  0.000  0.086  0.000  0.000  0.515
 
band     7 # energy   -4.70908055 # occ.  2.00000000
 
ion      s     py     pz     px    dxy    dyz    dz2    dxz  x2-y2    tot
    1  0.000  0.000  0.005  0.000  0.000  0.113  0.000  0.000  0.280  0.398
    2  0.000  0.095  0.064  0.000  0.000  0.005  0.000  0.000  0.000  0.164
    3  0.000  0.095  0.064  0.000  0.000  0.005  0.000  0.000  0.000  0.164
tot    0.001  0.190  0.133  0.000  0.000  0.122  0.000  0.000  0.281  0.726
 
band     8 # energy   -4.62478203 # occ.  2.00000000
 
ion      s     py     pz     px    dxy    dyz    dz2    dxz  x2-y2    tot
    1  0.000  0.000  0.000  0.000  0.378  0.000  0.000  0.146  0.000  0.523
    2  0.000  0.000  0.000  0.130  0.000  0.000  0.000  0.006  0.000  0.137
    3  0.000  0.000  0.000  0.130  0.000  0.000  0.000  0.006  0.000  0.136
tot    0.000  0.000  0.000  0.260  0.378  0.000  0.000  0.158  0.000  0.796
 
band     9 # energy   -4.41830078 # occ.  2.00000000
 
ion      s     py     pz     px    dxy    dyz    dz2    dxz  x2-y2    tot
    1  0.000  0.000  0.022  0.000  0.000  0.030  0.000  0.000  0.098  0.150
    2  0.000  0.035  0.184  0.000  0.000  0.002  0.000  0.000  0.000  0.221
    3  0.000  0.035  0.184  0.000  0.000  0.002  0.000  0.000  0.000  0.221
tot    0.000  0.070  0.390  0.000  0.000  0.033  0.000  0.000  0.098  0.592
 
band    10 # energy   -2.51567610 # occ.  1.92200434
 
ion      s     py     pz     px    dxy    dyz    dz2    dxz  x2-y2    tot
    1  0.000  0.000  0.000  0.000  0.000  0.569  0.007  0.000  0.253  0.830
    2  0.000  0.011  0.000  0.000  0.000  0.000  0.000  0.000  0.008  0.019
    3  0.000  0.011  0.000  0.000  0.000  0.000  0.000  0.000  0.008  0.019
tot    0.000  0.023  0.001  0.000  0.000  0.570  0.007  0.000  0.269  0.869
 
band    11 # energy   -2.51087409 # occ.  1.90656458
 
ion      s     py     pz     px    dxy    dyz    dz2    dxz  x2-y2    tot
    1  0.000  0.000  0.000  0.000  0.260  0.000  0.000  0.575  0.000  0.835
    2  0.000  0.000  0.000  0.010  0.008  0.000  0.000  0.000  0.000  0.018
    3  0.000  0.000  0.000  0.010  0.008  0.000  0.000  0.000  0.000  0.018
tot    0.000  0.000  0.000  0.020  0.275  0.000  0.000  0.575  0.000  0.870
 
band    12 # energy   -2.39615366 # occ.  0.72600690
 
ion      s     py     pz     px    dxy    dyz    dz2    dxz  x2-y2    tot
    1  0.010  0.000  0.000  0.000  0.000  0.007  0.684  0.000  0.003  0.705
    2  0.002  0.003  0.031  0.000  0.000  0.000  0.008  0.000  0.000  0.044
    3  0.002  0.003  0.031  0.000  0.000  0.000  0.008  0.000  0.000  0.044
tot    0.014  0.007  0.062  0.000  0.000  0.007  0.699  0.000  0.004  0.792
 
band    13 # energy   -1.50236103 # occ.  0.00000000
 
ion      s     py     pz     px    dxy    dyz    dz2    dxz  x2-y2    tot
    1  0.000  0.017  0.000  0.000  0.000  0.010  0.009  0.000  0.007  0.043
    2  0.001  0.338  0.001  0.000  0.000  0.001  0.000  0.000  0.000  0.340
    3  0.001  0.337  0.001  0.000  0.000  0.001  0.000  0.000  0.000  0.339
tot    0.002  0.692  0.001  0.000  0.000  0.011  0.009  0.000  0.007  0.722
 
band    14 # energy   -1.48370632 # occ.  0.00000000
 
ion      s     py     pz     px    dxy    dyz    dz2    dxz  x2-y2    tot
    1  0.000  0.000  0.000  0.018  0.007  0.000  0.000  0.009  0.000  0.034
    2  0.000  0.000  0.000  0.345  0.000  0.000  0.000  0.001  0.000  0.345
    3  0.000  0.000  0.000  0.343  0.000  0.000  0.000  0.001  0.000  0.344
tot    0.000  0.000  0.000  0.706  0.007  0.000  0.000  0.011  0.000  0.724
 
band    15 # energy    0.87207534 # occ.  0.00000000
 
ion      s     py     pz     px    dxy    dyz    dz2    dxz  x2-y2    tot
    1  0.000  0.000  0.000  0.000  0.000  0.154  0.000  0.000  0.228  0.383
    2  0.001  0.215  0.000  0.000  0.000  0.004  0.000  0.000  0.002  0.222
    3  0.001  0.217  0.000  0.000  0.000  0.004  0.000  0.000  0.002  0.223
tot    0.002  0.432  0.000  0.000  0.000  0.162  0.000  0.000  0.232  0.828
 
band    16 # energy    0.90021559 # occ.  0.00000000
 
ion      s     py     pz     px    dxy    dyz    dz2    dxz  x2-y2    tot
    1  0.000  0.000  0.000  0.000  0.227  0.000  0.000  0.154  0.000  0.381
    2  0.000  0.000  0.000  0.219  0.002  0.000  0.000  0.004  0.000  0.224
    3  0.000  0.000  0.000  0.220  0.002  0.000  0.000  0.004  0.000  0.226
tot    0.000  0.000  0.000  0.439  0.230  0.000  0.000  0.162  0.000  0.831
 

 k-point     4 :    0.00000000 0.03061224 0.00000000     weight = 0.00666667

band     1 # energy  -40.98989644 # occ.  2.00000000
 
ion      s     py     pz     px    dxy    dyz    dz2    dxz  x2-y2    tot
    1  0.000  0.991  0.000  0.000  0.000  0.000  0.000  0.000  0.000  0.991
    2  0.000  0.000  0.000  0.000  0.000  0.000  0.000  0.000  0.000  0.000
    3  0.000  0.000  0.000  0.000  0.000  0.000  0.000  0.000  0.000  0.000
tot    0.000  0.991  0.000  0.000  0.000  0.000  0.000  0.000  0.000  0.991
 
band     2 # energy  -40.98927419 # occ.  2.00000000
 
ion      s     py     pz     px    dxy    dyz    dz2    dxz  x2-y2    tot
    1  0.000  0.000  0.000  0.991  0.000  0.000  0.000  0.000  0.000  0.991
    2  0.000  0.000  0.000  0.000  0.000  0.000  0.000  0.000  0.000  0.000
    3  0.000  0.000  0.000  0.000  0.000  0.000  0.000  0.000  0.000  0.000
tot    0.000  0.000  0.000  0.991  0.000  0.000  0.000  0.000  0.000  0.992
 
band     3 # energy  -40.88649460 # occ.  2.00000000
 
ion      s     py     pz     px    dxy    dyz    dz2    dxz  x2-y2    tot
    1  0.000  0.000  0.987  0.000  0.000  0.000  0.000  0.000  0.000  0.987
    2  0.001  0.000  0.000  0.000  0.000  0.000  0.000  0.000  0.000  0.001
    3  0.001  0.000  0.000  0.000  0.000  0.000  0.000  0.000  0.000  0.001
tot    0.001  0.000  0.987  0.000  0.000  0.000  0.000  0.000  0.000  0.989
 
band     4 # energy  -16.81238166 # occ.  2.00000000
 
ion      s     py     pz     px    dxy    dyz    dz2    dxz  x2-y2    tot
    1  0.054  0.000  0.000  0.000  0.000  0.000  0.000  0.000  0.000  0.055
    2  0.308  0.000  0.003  0.000  0.000  0.000  0.000  0.000  0.000  0.312
    3  0.302  0.000  0.003  0.000  0.000  0.000  0.000  0.000  0.000  0.306
tot    0.665  0.000  0.007  0.000  0.000  0.000  0.000  0.000  0.000  0.672
 
band     5 # energy  -15.89733044 # occ.  2.00000000
 
ion      s     py     pz     px    dxy    dyz    dz2    dxz  x2-y2    tot
    1  0.000  0.000  0.022  0.000  0.000  0.000  0.000  0.000  0.000  0.022
    2  0.338  0.000  0.000  0.000  0.000  0.000  0.000  0.000  0.000  0.338
    3  0.344  0.000  0.000  0.000  0.000  0.000  0.000  0.000  0.000  0.344
tot    0.682  0.000  0.022  0.000  0.000  0.000  0.000  0.000  0.000  0.705
 
band     6 # energy   -7.63828637 # occ.  2.00000000
 
ion      s     py     pz     px    dxy    dyz    dz2    dxz  x2-y2    tot
    1  0.088  0.000  0.000  0.000  0.000  0.000  0.082  0.000  0.000  0.170
    2  0.018  0.000  0.153  0.000  0.000  0.000  0.002  0.000  0.000  0.173
    3  0.018  0.000  0.152  0.000  0.000  0.000  0.002  0.000  0.000  0.172
tot    0.124  0.000  0.305  0.000  0.000  0.000  0.086  0.000  0.000  0.515
 
band     7 # energy   -4.77242701 # occ.  2.00000000
 
ion      s     py     pz     px    dxy    dyz    dz2    dxz  x2-y2    tot
    1  0.000  0.000  0.005  0.000  0.000  0.108  0.000  0.000  0.258  0.371
    2  0.000  0.088  0.078  0.000  0.000  0.004  0.000  0.000  0.000  0.170
    3  0.000  0.087  0.078  0.000  0.000  0.004  0.000  0.000  0.000  0.170
tot    0.001  0.175  0.161  0.000  0.000  0.116  0.000  0.000  0.259  0.711
 
band     8 # energy   -4.62296274 # occ.  2.00000000
 
ion      s     py     pz     px    dxy    dyz    dz2    dxz  x2-y2    tot
    1  0.000  0.000  0.000  0.000  0.376  0.000  0.000  0.147  0.000  0.523
    2  0.000  0.000  0.000  0.131  0.000  0.000  0.000  0.006  0.000  0.137
    3  0.000  0.000  0.000  0.130  0.000  0.000  0.000  0.006  0.000  0.137
tot    0.000  0.000  0.000  0.261  0.376  0.000  0.000  0.159  0.000  0.796
 
band     9 # energy   -4.36246625 # occ.  2.00000000
 
ion      s     py     pz     px    dxy    dyz    dz2    dxz  x2-y2    tot
    1  0.000  0.000  0.022  0.000  0.000  0.033  0.000  0.000  0.119  0.174
    2  0.000  0.044  0.170  0.000  0.000  0.002  0.000  0.000  0.000  0.216
    3  0.000  0.043  0.170  0.000  0.000  0.002  0.000  0.000  0.000  0.216
tot    0.000  0.087  0.362  0.000  0.000  0.037  0.000  0.000  0.119  0.606
 
band    10 # energy   -2.54475664 # occ.  1.97718464
 
ion      s     py     pz     px    dxy    dyz    dz2    dxz  x2-y2    tot
    1  0.001  0.001  0.000  0.000  0.000  0.537  0.024  0.000  0.235  0.798
    2  0.000  0.021  0.001  0.000  0.000  0.000  0.000  0.000  0.007  0.031
    3  0.000  0.021  0.001  0.000  0.000  0.000  0.000  0.000  0.007  0.030
tot    0.001  0.043  0.002  0.000  0.000  0.538  0.025  0.000  0.250  0.859
 
band    11 # energy   -2.53024112 # occ.  1.95660746
 
ion      s     py     pz     px    dxy    dyz    dz2    dxz  x2-y2    tot
    1  0.000  0.000  0.000  0.001  0.255  0.000  0.000  0.562  0.000  0.818
    2  0.000  0.000  0.000  0.016  0.008  0.000  0.000  0.000  0.000  0.024
    3  0.000  0.000  0.000  0.016  0.008  0.000  0.000  0.000  0.000  0.024
tot    0.000  0.000  0.000  0.033  0.270  0.000  0.000  0.562  0.000  0.866
 
band    12 # energy   -2.40396716 # occ.  0.83185919
 
ion      s     py     pz     px    dxy    dyz    dz2    dxz  x2-y2    tot
    1  0.010  0.000  0.000  0.000  0.000  0.028  0.655  0.000  0.013  0.707
    2  0.002  0.005  0.029  0.000  0.000  0.000  0.007  0.000  0.000  0.044
    3  0.002  0.005  0.030  0.000  0.000  0.000  0.007  0.000  0.000  0.045
tot    0.014  0.011  0.059  0.000  0.000  0.028  0.670  0.000  0.014  0.796
 
band    13 # energy   -1.51063947 # occ.  0.00000000
 
ion      s     py     pz     px    dxy    dyz    dz2    dxz  x2-y2    tot
    1  0.000  0.017  0.000  0.000  0.000  0.021  0.020  0.000  0.015  0.072
    2  0.001  0.323  0.002  0.000  0.000  0.001  0.000  0.000  0.000  0.327
    3  0.001  0.322  0.002  0.000  0.000  0.001  0.000  0.000  0.000  0.326
tot    0.003  0.661  0.003  0.000  0.000  0.022  0.020  0.000  0.015  0.725
 
band    14 # energy   -1.47037133 # occ.  0.00000000
 
ion      s     py     pz     px    dxy    dyz    dz2    dxz  x2-y2    tot
    1  0.000  0.000  0.000  0.018  0.015  0.000  0.000  0.020  0.000  0.052
    2  0.000  0.000  0.000  0.338  0.000  0.000  0.000  0.001  0.000  0.339
    3  0.000  0.000  0.000  0.337  0.000  0.000  0.000  0.001  0.000  0.337
tot    0.000  0.000  0.000  0.692  0.015  0.000  0.000  0.021  0.000  0.728
 
band    15 # energy    0.83026619 # occ.  0.00000000
 
ion      s     py     pz     px    dxy    dyz    dz2    dxz  x2-y2    tot
    1  0.000  0.000  0.001  0.000  0.000  0.155  0.000  0.000  0.229  0.385
    2  0.002  0.210  0.000  0.000  0.000  0.004  0.000  0.000  0.002  0.218
    3  0.002  0.212  0.000  0.000  0.000  0.004  0.000  0.000  0.002  0.220
tot    0.005  0.421  0.001  0.000  0.000  0.163  0.001  0.000  0.232  0.823
 
band    16 # energy    0.89222524 # occ.  0.00000000
 
ion      s     py     pz     px    dxy    dyz    dz2    dxz  x2-y2    tot
    1  0.000  0.000  0.000  0.000  0.226  0.000  0.000  0.156  0.000  0.382
    2  0.000  0.000  0.000  0.218  0.002  0.000  0.000  0.004  0.000  0.223
    3  0.000  0.000  0.000  0.220  0.002  0.000  0.000  0.004  0.000  0.225
tot    0.000  0.000  0.000  0.437  0.229  0.000  0.000  0.164  0.000  0.831
 

 k-point     5 :    0.00000000 0.04081633 0.00000000     weight = 0.00666667

band     1 # energy  -40.99053197 # occ.  2.00000000
 
ion      s     py     pz     px    dxy    dyz    dz2    dxz  x2-y2    tot
    1  0.000  0.991  0.000  0.000  0.000  0.000  0.000  0.000  0.000  0.991
    2  0.000  0.000  0.000  0.000  0.000  0.000  0.000  0.000  0.000  0.000
    3  0.000  0.000  0.000  0.000  0.000  0.000  0.000  0.000  0.000  0.000
tot    0.000  0.991  0.000  0.000  0.000  0.000  0.000  0.000  0.000  0.991
 
band     2 # energy  -40.98942470 # occ.  2.00000000
 
ion      s     py     pz     px    dxy    dyz    dz2    dxz  x2-y2    tot
    1  0.000  0.000  0.000  0.991  0.000  0.000  0.000  0.000  0.000  0.991
    2  0.000  0.000  0.000  0.000  0.000  0.000  0.000  0.000  0.000  0.000
    3  0.000  0.000  0.000  0.000  0.000  0.000  0.000  0.000  0.000  0.000
tot    0.000  0.000  0.000  0.991  0.000  0.000  0.000  0.000  0.000  0.992
 
band     3 # energy  -40.88636500 # occ.  2.00000000
 
ion      s     py     pz     px    dxy    dyz    dz2    dxz  x2-y2    tot
    1  0.000  0.000  0.987  0.000  0.000  0.000  0.000  0.000  0.000  0.987
    2  0.001  0.000  0.000  0.000  0.000  0.000  0.000  0.000  0.000  0.001
    3  0.001  0.000  0.000  0.000  0.000  0.000  0.000  0.000  0.000  0.001
tot    0.001  0.000  0.987  0.000  0.000  0.000  0.000  0.000  0.000  0.989
 
band     4 # energy  -16.80271911 # occ.  2.00000000
 
ion      s     py     pz     px    dxy    dyz    dz2    dxz  x2-y2    tot
    1  0.054  0.000  0.000  0.000  0.000  0.000  0.000  0.000  0.000  0.054
    2  0.308  0.000  0.003  0.000  0.000  0.000  0.000  0.000  0.000  0.312
    3  0.303  0.000  0.003  0.000  0.000  0.000  0.000  0.000  0.000  0.306