 vasp.5.4.4.18Apr17-6-g9f103f2a35 (build May 20 2019 14:42:51) complex          
  
 executed on             LinuxIFC date 2021.06.28  16:11:38
 running on   12 total cores
 distrk:  each k-point on   12 cores,    1 groups
 distr:  one band on NCORES_PER_BAND=   3 cores,    4 groups


--------------------------------------------------------------------------------------------------------


 INCAR:
 POTCAR:    PAW_PBE V_pv 07Sep2000                
 POTCAR:    PAW_PBE S 06Sep2000                   
 POTCAR:    PAW_PBE V_pv 07Sep2000                
   VRHFIN =V: p6 d4 s1                                                          
   LEXCH  = PE                                                                  
   EATOM  =  1321.6206 eV,   97.1364 Ry                                         
                                                                                
   TITEL  = PAW_PBE V_pv 07Sep2000                                              
   LULTRA =        F    use ultrasoft PP ?                                      
   IUNSCR =        1    unscreen: 0-lin 1-nonlin 2-no                           
   RPACOR =    1.700    partial core radius                                     
   POMASS =   50.941; ZVAL   =   11.000    mass and valenz                      
   RCORE  =    2.300    outmost cutoff radius                                   
   RWIGS  =    2.300; RWIGS  =    1.217    wigner-seitz radius (au A)           
   ENMAX  =  263.673; ENMIN  =  197.755 eV                                      
   RCLOC  =    1.779    cutoff for local pot                                    
   LCOR   =        T    correct aug charges                                     
   LPAW   =        T    paw PP                                                  
   EAUG   =  598.473                                                            
   DEXC   =    0.000                                                            
   RMAX   =    2.359    core radius for proj-oper                               
   RAUG   =    1.300    factor for augmentation sphere                          
   RDEP   =    2.430    radius for radial grids                                 
   RDEPT  =    1.700    core radius for aug-charge                              
                                                                                
   Atomic configuration                                                         
    8 entries                                                                   
     n  l   j            E        occ.                                          
     1  0  0.50     -5360.7193   2.0000                                         
     2  0  0.50      -598.4546   2.0000                                         
     2  1  1.50      -499.0155   6.0000                                         
     3  0  0.50       -66.5711   2.0000                                         
     3  1  1.50       -40.5282   6.0000                                         
     3  2  2.50        -2.4291   4.0000                                         
     4  0  0.50        -3.8743   1.0000                                         
     4  3  2.50        -1.3606   0.0000                                         
   Description                                                                  
     l       E           TYP  RCUT    TYP  RCUT                                 
     1    -40.5282431     23  2.000                                             
     1      5.4423304     23  2.000                                             
     2     -2.4290905     23  2.300                                             
     2     -1.0472488     23  2.300                                             
     0     -3.8742754     23  2.300                                             
     0     27.2116520     23  2.300                                             
  local pseudopotential read in
  partial core-charges read in
  partial kinetic energy density read in
  atomic valenz-charges read in
  non local Contribution for L=           1  read in
    real space projection operators read in
  non local Contribution for L=           1  read in
    real space projection operators read in
  non local Contribution for L=           2  read in
    real space projection operators read in
  non local Contribution for L=           2  read in
    real space projection operators read in
  non local Contribution for L=           0  read in
    real space projection operators read in
  non local Contribution for L=           0  read in
    real space projection operators read in
    PAW grid and wavefunctions read in
 
   number of l-projection  operators is LMAX  =           6
   number of lm-projection operators is LMMAX =          18
 
 POTCAR:    PAW_PBE S 06Sep2000                   
   VRHFIN =S : s2p4                                                             
   LEXCH  = PE                                                                  
   EATOM  =   276.8230 eV,   20.3459 Ry                                         
                                                                                
   TITEL  = PAW_PBE S 06Sep2000                                                 
   LULTRA =        F    use ultrasoft PP ?                                      
   IUNSCR =        1    unscreen: 0-lin 1-nonlin 2-no                           
   RPACOR =    1.500    partial core radius                                     
   POMASS =   32.066; ZVAL   =    6.000    mass and valenz                      
   RCORE  =    1.900    outmost cutoff radius                                   
   RWIGS  =    2.200; RWIGS  =    1.164    wigner-seitz radius (au A)           
   ENMAX  =  258.689; ENMIN  =  194.016 eV                                      
   ICORE  =        2    local potential                                         
   LCOR   =        T    correct aug charges                                     
   LPAW   =        T    paw PP                                                  
   EAUG   =  335.092                                                            
   DEXC   =    0.000                                                            
   RMAX   =    1.942    core radius for proj-oper                               
   RAUG   =    1.300    factor for augmentation sphere                          
   RDEP   =    1.954    radius for radial grids                                 
   RDEPT  =    1.744    core radius for aug-charge                              
                                                                                
   Atomic configuration                                                         
    6 entries                                                                   
     n  l   j            E        occ.                                          
     1  0  0.50     -2405.8406   2.0000                                         
     2  0  0.50      -211.7007   2.0000                                         
     2  1  1.50      -156.4958   6.0000                                         
     3  0  0.50       -17.2562   2.0000                                         
     3  1  0.50        -7.0085   4.0000                                         
     3  2  1.50        -6.8029   0.0000                                         
   Description                                                                  
     l       E           TYP  RCUT    TYP  RCUT                                 
     0    -17.2561641     23  1.900                                             
     0    -15.8743224     23  1.900                                             
     1     -7.0085400     23  1.900                                             
     1     -2.7779785     23  1.900                                             
     2     -6.8029130     23  1.900                                             
  local pseudopotential read in
  partial core-charges read in
  partial kinetic energy density read in
  atomic valenz-charges read in
  non local Contribution for L=           0  read in
    real space projection operators read in
  non local Contribution for L=           0  read in
    real space projection operators read in
  non local Contribution for L=           1  read in
    real space projection operators read in
  non local Contribution for L=           1  read in
    real space projection operators read in
    PAW grid and wavefunctions read in
 
   number of l-projection  operators is LMAX  =           4
   number of lm-projection operators is LMMAX =           8
 
  PAW_PBE V_pv 07Sep2000                :
 energy of atom  1       EATOM=-1321.6206
 kinetic energy error for atom=    0.0058 (will be added to EATOM!!)
  PAW_PBE S 06Sep2000                   :
 energy of atom  2       EATOM= -276.8230
 kinetic energy error for atom=    0.0020 (will be added to EATOM!!)
 
 
 POSCAR: Primitive Cell, D = 3.1212              
  positions in direct lattice
  velocities in cartesian coordinates
  No initial velocities read in
 exchange correlation table for  LEXCH =        8
   RHO(1)=    0.500       N(1)  =     2000
   RHO(2)=  100.500       N(2)  =     4000
 


--------------------------------------------------------------------------------------------------------


 ion  position               nearest neighbor table
   1  0.000  0.000  0.051-   3 2.35   4 2.35   4 2.35   3 2.35   3 2.35   4 2.35
   2  0.000  0.000  0.260-   5 2.35   5 2.35   5 2.35   6 2.35   6 2.35   6 2.35
   3  0.667  0.333  0.000-   1 2.35   1 2.35   1 2.35
   4  0.333  0.667  0.101-   1 2.35   1 2.35   1 2.35
   5  0.667  0.333  0.209-   2 2.35   2 2.35   2 2.35
   6  0.333  0.667  0.310-   2 2.35   2 2.35   2 2.35
 
  LATTYP: Found a hexagonal cell.
 ALAT       =     3.1882836819
 C/A-ratio  =     9.0929708595
  
  Lattice vectors:
  
 A1 = (   3.1882836819,   0.0000000000,   0.0000000000)
 A2 = (  -1.5941418409,   2.7611346630,   0.0000000000)
 A3 = (   0.0000000000,   0.0000000000,  28.9909706116)


Analysis of symmetry for initial positions (statically):
=====================================================================
 Subroutine PRICEL returns:
 Original cell was already a primitive cell.
 

 Routine SETGRP: Setting up the symmetry group for a 
 hexagonal supercell.


 Subroutine GETGRP returns: Found 12 space group operations
 (whereof  6 operations were pure point group operations)
 out of a pool of 24 trial point group operations.


The static configuration has the point symmetry C_3v.
 The point group associated with its full space group is D_3d.


Analysis of symmetry for dynamics (positions and initial velocities):
=====================================================================
 Subroutine PRICEL returns:
 Original cell was already a primitive cell.
 

 Routine SETGRP: Setting up the symmetry group for a 
 hexagonal supercell.


 Subroutine GETGRP returns: Found 12 space group operations
 (whereof  6 operations were pure point group operations)
 out of a pool of 24 trial point group operations.


The dynamic configuration has the point symmetry C_3v.
 The point group associated with its full space group is D_3d.


Analysis of structural, dynamic, and magnetic symmetry:
=====================================================================
 Subroutine PRICEL returns:
 Original cell was already a primitive cell.
 

 Routine SETGRP: Setting up the symmetry group for a 
 hexagonal supercell.


 Subroutine GETGRP returns: Found 12 space group operations
 (whereof  6 operations were pure point group operations)
 out of a pool of 24 trial point group operations.


The magnetic configuration has the point symmetry C_3v.
 The point group associated with its full space group is D_3d.


 Subroutine INISYM returns: Found 12 space group operations
 (whereof  6 operations are pure point group operations),
 and found     1 'primitive' translations

 
 
 KPOINTS: !Auto mesh                              

Automatic generation of k-mesh.
Space group operators:
 irot       det(A)        alpha          n_x          n_y          n_z        tau_x        tau_y        tau_z
    1     1.000000     0.000000     1.000000     0.000000     0.000000     0.000000     0.000000     0.000000
    2     1.000000   120.000000     0.000000     0.000000    -1.000000     0.000000     0.000000     0.000000
    3     1.000000   120.000000     0.000000     0.000000     1.000000     0.000000     0.000000     0.000000
    4    -1.000000   180.000000     1.000000    -0.000000     0.000000     0.000000     0.000000     0.000000
    5    -1.000000   180.000000     0.500000    -0.866025     0.000000     0.000000     0.000000     0.000000
    6    -1.000000   180.000000    -0.500000    -0.866025     0.000000     0.000000     0.000000     0.000000
    7    -1.000000     0.000000     1.000000     0.000000     0.000000     0.000000     0.000000     0.310130
    8    -1.000000   120.000000     0.000000     0.000000    -1.000000     0.000000     0.000000     0.310130
    9    -1.000000   120.000000     0.000000     0.000000     1.000000     0.000000     0.000000     0.310130
   10     1.000000   180.000000     1.000000    -0.000000     0.000000     0.000000     0.000000     0.310130
   11     1.000000   180.000000     0.500000    -0.866025     0.000000     0.000000     0.000000     0.310130
   12     1.000000   180.000000    -0.500000    -0.866025     0.000000     0.000000     0.000000     0.310130
 
 Subroutine IBZKPT returns following result:
 ===========================================
 
 Found     65 irreducible k-points:
 
 Following reciprocal coordinates:
            Coordinates               Weight
  0.000000  0.000000  0.000000      1.000000
  0.040000 -0.000000  0.000000      6.000000
  0.080000 -0.000000  0.000000      6.000000
  0.120000  0.000000  0.000000      6.000000
  0.160000 -0.000000  0.000000      6.000000
  0.200000 -0.000000  0.000000      6.000000
  0.240000  0.000000  0.000000      6.000000
  0.280000 -0.000000  0.000000      6.000000
  0.320000 -0.000000  0.000000      6.000000
  0.360000 -0.000000  0.000000      6.000000
  0.400000 -0.000000  0.000000      6.000000
  0.440000 -0.000000  0.000000      6.000000
  0.480000  0.000000  0.000000      6.000000
  0.040000  0.040000  0.000000      6.000000
  0.080000  0.040000  0.000000     12.000000
  0.120000  0.040000  0.000000     12.000000
  0.160000  0.040000  0.000000     12.000000
  0.200000  0.040000  0.000000     12.000000
  0.240000  0.040000  0.000000     12.000000
  0.280000  0.040000  0.000000     12.000000
  0.320000  0.040000  0.000000     12.000000
  0.360000  0.040000  0.000000     12.000000
  0.400000  0.040000  0.000000     12.000000
  0.440000  0.040000  0.000000     12.000000
  0.480000  0.040000  0.000000      6.000000
  0.080000  0.080000  0.000000      6.000000
  0.120000  0.080000  0.000000     12.000000
  0.160000  0.080000  0.000000     12.000000
  0.200000  0.080000  0.000000     12.000000
  0.240000  0.080000  0.000000     12.000000
  0.280000  0.080000  0.000000     12.000000
  0.320000  0.080000  0.000000     12.000000
  0.360000  0.080000  0.000000     12.000000
  0.400000  0.080000  0.000000     12.000000
  0.440000  0.080000  0.000000     12.000000
  0.120000  0.120000  0.000000      6.000000
  0.160000  0.120000  0.000000     12.000000
  0.200000  0.120000  0.000000     12.000000
  0.240000  0.120000  0.000000     12.000000
  0.280000  0.120000  0.000000     12.000000
  0.320000  0.120000  0.000000     12.000000
  0.360000  0.120000  0.000000     12.000000
  0.400000  0.120000  0.000000     12.000000
  0.440000  0.120000  0.000000      6.000000
  0.160000  0.160000  0.000000      6.000000
  0.200000  0.160000  0.000000     12.000000
  0.240000  0.160000  0.000000     12.000000
  0.280000  0.160000  0.000000     12.000000
  0.320000  0.160000  0.000000     12.000000
  0.360000  0.160000  0.000000     12.000000
  0.400000  0.160000  0.000000     12.000000
  0.200000  0.200000  0.000000      6.000000
  0.240000  0.200000  0.000000     12.000000
  0.280000  0.200000  0.000000     12.000000
  0.320000  0.200000  0.000000     12.000000
  0.360000  0.200000  0.000000     12.000000
  0.400000  0.200000  0.000000      6.000000
  0.240000  0.240000  0.000000      6.000000
  0.280000  0.240000  0.000000     12.000000
  0.320000  0.240000  0.000000     12.000000
  0.360000  0.240000  0.000000     12.000000
  0.280000  0.280000  0.000000      6.000000
  0.320000  0.280000  0.000000     12.000000
  0.360000  0.280000  0.000000      6.000000
  0.320000  0.320000  0.000000      6.000000
 
 Following cartesian coordinates:
            Coordinates               Weight
  0.000000  0.000000  0.000000      1.000000
  0.012546  0.007243  0.000000      6.000000
  0.025092  0.014487  0.000000      6.000000
  0.037638  0.021730  0.000000      6.000000
  0.050184  0.028974  0.000000      6.000000
  0.062730  0.036217  0.000000      6.000000
  0.075276  0.043460  0.000000      6.000000
  0.087822  0.050704  0.000000      6.000000
  0.100367  0.057947  0.000000      6.000000
  0.112913  0.065191  0.000000      6.000000
  0.125459  0.072434  0.000000      6.000000
  0.138005  0.079677  0.000000      6.000000
  0.150551  0.086921  0.000000      6.000000
  0.012546  0.021730  0.000000      6.000000
  0.025092  0.028974  0.000000     12.000000
  0.037638  0.036217  0.000000     12.000000
  0.050184  0.043460  0.000000     12.000000
  0.062730  0.050704  0.000000     12.000000
  0.075276  0.057947  0.000000     12.000000
  0.087822  0.065191  0.000000     12.000000
  0.100367  0.072434  0.000000     12.000000
  0.112913  0.079677  0.000000     12.000000
  0.125459  0.086921  0.000000     12.000000
  0.138005  0.094164  0.000000     12.000000
  0.150551  0.101408  0.000000      6.000000
  0.025092  0.043460  0.000000      6.000000
  0.037638  0.050704  0.000000     12.000000
  0.050184  0.057947  0.000000     12.000000
  0.062730  0.065191  0.000000     12.000000
  0.075276  0.072434  0.000000     12.000000
  0.087822  0.079677  0.000000     12.000000
  0.100367  0.086921  0.000000     12.000000
  0.112913  0.094164  0.000000     12.000000
  0.125459  0.101408  0.000000     12.000000
  0.138005  0.108651  0.000000     12.000000
  0.037638  0.065191  0.000000      6.000000
  0.050184  0.072434  0.000000     12.000000
  0.062730  0.079677  0.000000     12.000000
  0.075276  0.086921  0.000000     12.000000
  0.087822  0.094164  0.000000     12.000000
  0.100367  0.101408  0.000000     12.000000
  0.112913  0.108651  0.000000     12.000000
  0.125459  0.115894  0.000000     12.000000
  0.138005  0.123138  0.000000      6.000000
  0.050184  0.086921  0.000000      6.000000
  0.062730  0.094164  0.000000     12.000000
  0.075276  0.101408  0.000000     12.000000
  0.087822  0.108651  0.000000     12.000000
  0.100367  0.115894  0.000000     12.000000
  0.112913  0.123138  0.000000     12.000000
  0.125459  0.130381  0.000000     12.000000
  0.062730  0.108651  0.000000      6.000000
  0.075276  0.115894  0.000000     12.000000
  0.087822  0.123138  0.000000     12.000000
  0.100367  0.130381  0.000000     12.000000
  0.112913  0.137625  0.000000     12.000000
  0.125459  0.144868  0.000000      6.000000
  0.075276  0.130381  0.000000      6.000000
  0.087822  0.137625  0.000000     12.000000
  0.100367  0.144868  0.000000     12.000000
  0.112913  0.152111  0.000000     12.000000
  0.087822  0.152111  0.000000      6.000000
  0.100367  0.159355  0.000000     12.000000
  0.112913  0.166598  0.000000      6.000000
  0.100367  0.173842  0.000000      6.000000
 
 TETIRR: Found    325 inequivalent tetrahedra from     3750


--------------------------------------------------------------------------------------------------------




 Dimension of arrays:
   k-points           NKPTS =     65   k-points in BZ     NKDIM =     65   number of bands    NBANDS=     32
   number of dos      NEDOS =    301   number of ions     NIONS =      6
   non local maximal  LDIM  =      6   non local SUM 2l+1 LMDIM =     18
   total plane-waves  NPLWV = 124416
   max r-space proj   IRMAX =      1   max aug-charges    IRDMAX=  15556
   dimension x,y,z NGX =    24 NGY =   24 NGZ =  216
   dimension x,y,z NGXF=    48 NGYF=   48 NGZF=  432
   support grid    NGXF=    48 NGYF=   48 NGZF=  432
   ions per type =               2   4
   NGX,Y,Z   is equivalent  to a cutoff of  12.51, 12.51, 12.39 a.u.
   NGXF,Y,Z  is equivalent  to a cutoff of  25.03, 25.03, 24.77 a.u.

 SYSTEM =  VSe2                                    
 POSCAR =  Primitive Cell, D = 3.1212              

 Startparameter for this run:
   NWRITE =      2    write-flag & timer
   PREC   = accura    normal or accurate (medium, high low for compatibility)
   ISTART =      0    job   : 0-new  1-cont  2-samecut
   ICHARG =      1    charge: 1-file 2-atom 10-const
   ISPIN  =      2    spin polarized calculation?
   LNONCOLLINEAR =      F non collinear calculations
   LSORBIT =      F    spin-orbit coupling
   INIWAV =      1    electr: 0-lowe 1-rand  2-diag
   LASPH  =      F    aspherical Exc in radial PAW
   METAGGA=      F    non-selfconsistent MetaGGA calc.

 Electronic Relaxation 1
   ENCUT  =  500.0 eV  36.75 Ry    6.06 a.u.   5.81  5.81 52.86*2*pi/ulx,y,z
   ENINI  =  500.0     initial cutoff
   ENAUG  =  598.5 eV  augmentation charge cutoff
   NELM   =    100;   NELMIN=  2; NELMDL= -5     # of ELM steps 
   EDIFF  = 0.1E-06   stopping-criterion for ELM
   LREAL  =      F    real-space projection
   NLSPLINE    = F    spline interpolate recip. space projectors
   LCOMPAT=      F    compatible to vasp.4.4
   GGA_COMPAT  = T    GGA compatible to vasp.4.4-vasp.4.6
   LMAXPAW     = -100 max onsite density
   LMAXMIX     =    4 max onsite mixed and CHGCAR
   VOSKOWN=      0    Vosko Wilk Nusair interpolation
   ROPT   =    0.00000   0.00000
 Ionic relaxation
   EDIFFG = 0.1E-05   stopping-criterion for IOM
   NSW    =      0    number of steps for IOM
   NBLOCK =      1;   KBLOCK =      1    inner block; outer block 
   IBRION =     -1    ionic relax: 0-MD 1-quasi-New 2-CG
   NFREE  =      0    steps in history (QN), initial steepest desc. (CG)
   ISIF   =      2    stress and relaxation
   IWAVPR =     10    prediction:  0-non 1-charg 2-wave 3-comb
   ISYM   =      2    0-nonsym 1-usesym 2-fastsym
   LCORR  =      T    Harris-Foulkes like correction to forces

   POTIM  = 0.5000    time-step for ionic-motion
   TEIN   =    0.0    initial temperature
   TEBEG  =    0.0;   TEEND  =   0.0 temperature during run
   SMASS  =  -3.00    Nose mass-parameter (am)
   estimated Nose-frequenzy (Omega)   =  0.10E-29 period in steps =****** mass=  -0.232E-27a.u.
   SCALEE = 1.0000    scale energy and forces
   NPACO  =    256;   APACO  = 16.0  distance and # of slots for P.C.
   PSTRESS=    0.0 pullay stress

  Mass of Ions in am
   POMASS =  50.94 32.07
  Ionic Valenz
   ZVAL   =  11.00  6.00
  Atomic Wigner-Seitz radii
   RWIGS  =  -1.00 -1.00
  virtual crystal weights 
   VCA    =   1.00  1.00
   NELECT =      46.0000    total number of electrons
   NUPDOWN=      -1.0000    fix difference up-down

 DOS related values:
   EMIN   =  10.00;   EMAX   =-10.00  energy-range for DOS
   EFERMI =   0.00
   ISMEAR =    -5;   SIGMA  =   0.20  broadening in eV -4-tet -1-fermi 0-gaus

 Electronic relaxation 2 (details)
   IALGO  =     38    algorithm
   LDIAG  =      T    sub-space diagonalisation (order eigenvalues)
   LSUBROT=      F    optimize rotation matrix (better conditioning)
   TURBO    =      0    0=normal 1=particle mesh
   IRESTART =      0    0=no restart 2=restart with 2 vectors
   NREBOOT  =      0    no. of reboots
   NMIN     =      0    reboot dimension
   EREF     =   0.00    reference energy to select bands
   IMIX   =      4    mixing-type and parameters
     AMIX     =   0.40;   BMIX     =  1.00
     AMIX_MAG =   1.60;   BMIX_MAG =  1.00
     AMIN     =   0.10
     WC   =   100.;   INIMIX=   1;  MIXPRE=   1;  MAXMIX= -45

 Intra band minimization:
   WEIMIN = 0.0000     energy-eigenvalue tresh-hold
   EBREAK =  0.78E-09  absolut break condition
   DEPER  =   0.30     relativ break condition  

   TIME   =   0.40     timestep for ELM

  volume/ion in A,a.u.               =      42.54       287.05
  Fermi-wavevector in a.u.,A,eV,Ry     =   0.924751  1.747527 11.635229  0.855165
  Thomas-Fermi vector in A             =   2.050531
 
 Write flags
   LWAVE        =      F    write WAVECAR
   LDOWNSAMPLE  =      F    k-point downsampling of WAVECAR
   LCHARG       =      T    write CHGCAR
   LVTOT        =      F    write LOCPOT, total local potential
   LVHAR        =      F    write LOCPOT, Hartree potential only
   LELF         =      F    write electronic localiz. function (ELF)
   LORBIT       =     11    0 simple, 1 ext, 2 COOP (PROOUT), +10 PAW based schemes


 Dipole corrections
   LMONO  =      F    monopole corrections only (constant potential shift)
   LDIPOL =      T    correct potential (dipole corrections)
   IDIPOL =      3    1-x, 2-y, 3-z, 4-all directions 
   EPSILON=  1.0000000 bulk dielectric constant

 LDA+U is selected, type is set to LDAUTYPE =  2
   angular momentum for each species LDAUL =     2   -1
   U (eV)           for each species LDAUU =   1.0  0.0
   J (eV)           for each species LDAUJ =   0.0  0.0
 Exchange correlation treatment:
   GGA     =    --    GGA type
   LEXCH   =     8    internal setting for exchange type
   VOSKOWN=      0    Vosko Wilk Nusair interpolation
   LHFCALC =     F    Hartree Fock is set to
   LHFONE  =     F    Hartree Fock one center treatment
   AEXX    =    0.0000 exact exchange contribution

 Linear response parameters
   LEPSILON=     F    determine dielectric tensor
   LRPA    =     F    only Hartree local field effects (RPA)
   LNABLA  =     F    use nabla operator in PAW spheres
   LVEL    =     F    velocity operator in full k-point grid
   LINTERFAST=   F  fast interpolation
   KINTER  =     0    interpolate to denser k-point grid
   CSHIFT  =0.1000    complex shift for real part using Kramers Kronig
   OMEGAMAX=  -1.0    maximum frequency
   DEG_THRESHOLD= 0.2000000E-02 threshold for treating states as degnerate
   RTIME   =   -0.100 relaxation time in fs
  (WPLASMAI=    0.000 imaginary part of plasma frequency in eV, 0.658/RTIME)
   DFIELD  = 0.0000000 0.0000000 0.0000000 field for delta impulse in time
 
 Orbital magnetization related:
   ORBITALMAG=     F  switch on orbital magnetization
   LCHIMAG   =     F  perturbation theory with respect to B field
   DQ        =  0.001000  dq finite difference perturbation B field
   LLRAUG    =     F  two centre corrections for induced B field



--------------------------------------------------------------------------------------------------------


 Static calculation
 charge density and potential will be updated during run
 spin polarized calculation
 Variant of blocked Davidson
 Davidson routine will perform the subspace rotation
 perform sub-space diagonalisation
    after iterative eigenvector-optimisation
 modified Broyden-mixing scheme, WC =      100.0
 initial mixing is a Kerker type mixing with AMIX =  0.4000 and BMIX =      1.0000
 Hartree-type preconditioning will be used
 using additional bands            9
 reciprocal scheme for non local part
 use partial core corrections
 calculate Harris-corrections to forces 
   (improved forces if not selfconsistent)
 use gradient corrections 
 use of overlap-Matrix (Vanderbilt PP)
 Fermi weights with tetrahedron method with Bloechl corrections


--------------------------------------------------------------------------------------------------------


  energy-cutoff  :      500.00
  volume of cell :      255.22
      direct lattice vectors                 reciprocal lattice vectors
     3.188283682  0.000000000  0.000000000     0.313648376  0.181084974  0.000000000
    -1.594141841  2.761134663  0.000000000     0.000000000  0.362169949  0.000000000
     0.000000000  0.000000000 28.990970612     0.000000000  0.000000000  0.034493498

  length of vectors
     3.188283682  3.188283682 28.990970612     0.362169949  0.362169949  0.034493498


 
 k-points in units of 2pi/SCALE and weight: !Auto mesh                              
   0.00000000  0.00000000  0.00000000       0.002
   0.01254594  0.00724340  0.00000000       0.010
   0.02509187  0.01448680  0.00000000       0.010
   0.03763781  0.02173020  0.00000000       0.010
   0.05018374  0.02897360  0.00000000       0.010
   0.06272968  0.03621699  0.00000000       0.010
   0.07527561  0.04346039  0.00000000       0.010
   0.08782155  0.05070379  0.00000000       0.010
   0.10036748  0.05794719  0.00000000       0.010
   0.11291342  0.06519059  0.00000000       0.010
   0.12545935  0.07243399  0.00000000       0.010
   0.13800529  0.07967739  0.00000000       0.010
   0.15055122  0.08692079  0.00000000       0.010
   0.01254594  0.02173020  0.00000000       0.010
   0.02509187  0.02897360  0.00000000       0.019
   0.03763781  0.03621699  0.00000000       0.019
   0.05018374  0.04346039  0.00000000       0.019
   0.06272968  0.05070379  0.00000000       0.019
   0.07527561  0.05794719  0.00000000       0.019
   0.08782155  0.06519059  0.00000000       0.019
   0.10036748  0.07243399  0.00000000       0.019
   0.11291342  0.07967739  0.00000000       0.019
   0.12545935  0.08692079  0.00000000       0.019
   0.13800529  0.09416419  0.00000000       0.019
   0.15055122  0.10140759  0.00000000       0.010
   0.02509187  0.04346039  0.00000000       0.010
   0.03763781  0.05070379  0.00000000       0.019
   0.05018374  0.05794719  0.00000000       0.019
   0.06272968  0.06519059  0.00000000       0.019
   0.07527561  0.07243399  0.00000000       0.019
   0.08782155  0.07967739  0.00000000       0.019
   0.10036748  0.08692079  0.00000000       0.019
   0.11291342  0.09416419  0.00000000       0.019
   0.12545935  0.10140759  0.00000000       0.019
   0.13800529  0.10865098  0.00000000       0.019
   0.03763781  0.06519059  0.00000000       0.010
   0.05018374  0.07243399  0.00000000       0.019
   0.06272968  0.07967739  0.00000000       0.019
   0.07527561  0.08692079  0.00000000       0.019
   0.08782155  0.09416419  0.00000000       0.019
   0.10036748  0.10140759  0.00000000       0.019
   0.11291342  0.10865098  0.00000000       0.019
   0.12545935  0.11589438  0.00000000       0.019
   0.13800529  0.12313778  0.00000000       0.010
   0.05018374  0.08692079  0.00000000       0.010
   0.06272968  0.09416419  0.00000000       0.019
   0.07527561  0.10140759  0.00000000       0.019
   0.08782155  0.10865098  0.00000000       0.019
   0.10036748  0.11589438  0.00000000       0.019
   0.11291342  0.12313778  0.00000000       0.019
   0.12545935  0.13038118  0.00000000       0.019
   0.06272968  0.10865098  0.00000000       0.010
   0.07527561  0.11589438  0.00000000       0.019
   0.08782155  0.12313778  0.00000000       0.019
   0.10036748  0.13038118  0.00000000       0.019
   0.11291342  0.13762458  0.00000000       0.019
   0.12545935  0.14486798  0.00000000       0.010
   0.07527561  0.13038118  0.00000000       0.010
   0.08782155  0.13762458  0.00000000       0.019
   0.10036748  0.14486798  0.00000000       0.019
   0.11291342  0.15211138  0.00000000       0.019
   0.08782155  0.15211138  0.00000000       0.010
   0.10036748  0.15935478  0.00000000       0.019
   0.11291342  0.16659818  0.00000000       0.010
   0.10036748  0.17384158  0.00000000       0.010
 
 k-points in reciprocal lattice and weights: !Auto mesh                              
   0.00000000  0.00000000  0.00000000       0.002
   0.04000000 -0.00000000  0.00000000       0.010
   0.08000000 -0.00000000  0.00000000       0.010
   0.12000000  0.00000000  0.00000000       0.010
   0.16000000 -0.00000000  0.00000000       0.010
   0.20000000 -0.00000000  0.00000000       0.010
   0.24000000  0.00000000  0.00000000       0.010
   0.28000000 -0.00000000  0.00000000       0.010
   0.32000000 -0.00000000  0.00000000       0.010
   0.36000000 -0.00000000  0.00000000       0.010
   0.40000000 -0.00000000  0.00000000       0.010
   0.44000000 -0.00000000  0.00000000       0.010
   0.48000000  0.00000000  0.00000000       0.010
   0.04000000  0.04000000  0.00000000       0.010
   0.08000000  0.04000000  0.00000000       0.019
   0.12000000  0.04000000  0.00000000       0.019
   0.16000000  0.04000000  0.00000000       0.019
   0.20000000  0.04000000  0.00000000       0.019
   0.24000000  0.04000000  0.00000000       0.019
   0.28000000  0.04000000  0.00000000       0.019
   0.32000000  0.04000000  0.00000000       0.019
   0.36000000  0.04000000  0.00000000       0.019
   0.40000000  0.04000000  0.00000000       0.019
   0.44000000  0.04000000  0.00000000       0.019
   0.48000000  0.04000000  0.00000000       0.010
   0.08000000  0.08000000  0.00000000       0.010
   0.12000000  0.08000000  0.00000000       0.019
   0.16000000  0.08000000  0.00000000       0.019
   0.20000000  0.08000000  0.00000000       0.019
   0.24000000  0.08000000  0.00000000       0.019
   0.28000000  0.08000000  0.00000000       0.019
   0.32000000  0.08000000  0.00000000       0.019
   0.36000000  0.08000000  0.00000000       0.019
   0.40000000  0.08000000  0.00000000       0.019
   0.44000000  0.08000000  0.00000000       0.019
   0.12000000  0.12000000  0.00000000       0.010
   0.16000000  0.12000000  0.00000000       0.019
   0.20000000  0.12000000  0.00000000       0.019
   0.24000000  0.12000000  0.00000000       0.019
   0.28000000  0.12000000  0.00000000       0.019
   0.32000000  0.12000000  0.00000000       0.019
   0.36000000  0.12000000  0.00000000       0.019
   0.40000000  0.12000000  0.00000000       0.019
   0.44000000  0.12000000  0.00000000       0.010
   0.16000000  0.16000000  0.00000000       0.010
   0.20000000  0.16000000  0.00000000       0.019
   0.24000000  0.16000000  0.00000000       0.019
   0.28000000  0.16000000  0.00000000       0.019
   0.32000000  0.16000000  0.00000000       0.019
   0.36000000  0.16000000  0.00000000       0.019
   0.40000000  0.16000000  0.00000000       0.019
   0.20000000  0.20000000  0.00000000       0.010
   0.24000000  0.20000000  0.00000000       0.019
   0.28000000  0.20000000  0.00000000       0.019
   0.32000000  0.20000000  0.00000000       0.019
   0.36000000  0.20000000  0.00000000       0.019
   0.40000000  0.20000000  0.00000000       0.010
   0.24000000  0.24000000  0.00000000       0.010
   0.28000000  0.24000000  0.00000000       0.019
   0.32000000  0.24000000  0.00000000       0.019
   0.36000000  0.24000000  0.00000000       0.019
   0.28000000  0.28000000  0.00000000       0.010
   0.32000000  0.28000000  0.00000000       0.019
   0.36000000  0.28000000  0.00000000       0.010
   0.32000000  0.32000000  0.00000000       0.010
 
 position of ions in fractional coordinates (direct lattice) 
   0.00000000  0.00000000  0.05061699
   0.00000000  0.00000000  0.25951305
   0.66666669  0.33333331  0.00000000
   0.33333331  0.66666663  0.10123398
   0.66666669  0.33333331  0.20889607
   0.33333331  0.66666663  0.31013006
 
 position of ions in cartesian coordinates  (Angst):
   0.00000000  0.00000000  1.46743570
   0.00000000  0.00000000  7.52353521
   1.59414194  0.92037816  0.00000000
  -0.00000000  1.84075633  2.93487140
   1.59414194  0.92037816  6.05609986
  -0.00000000  1.84075633  8.99097146
 


--------------------------------------------------------------------------------------------------------


 k-point  1 :   0.0000 0.0000 0.0000  plane waves:    6435
 k-point  2 :   0.0400-0.0000 0.0000  plane waves:    6446
 k-point  3 :   0.0800-0.0000 0.0000  plane waves:    6444
 k-point  4 :   0.1200 0.0000 0.0000  plane waves:    6440
 k-point  5 :   0.1600-0.0000 0.0000  plane waves:    6444
 k-point  6 :   0.2000-0.0000 0.0000  plane waves:    6446
 k-point  7 :   0.2400 0.0000 0.0000  plane waves:    6468
 k-point  8 :   0.2800-0.0000 0.0000  plane waves:    6474
 k-point  9 :   0.3200-0.0000 0.0000  plane waves:    6506
 k-point 10 :   0.3600-0.0000 0.0000  plane waves:    6516
 k-point 11 :   0.4000-0.0000 0.0000  plane waves:    6532
 k-point 12 :   0.4400-0.0000 0.0000  plane waves:    6514
 k-point 13 :   0.4800 0.0000 0.0000  plane waves:    6500
 k-point 14 :   0.0400 0.0400 0.0000  plane waves:    6445
 k-point 15 :   0.0800 0.0400 0.0000  plane waves:    6439
 k-point 16 :   0.1200 0.0400 0.0000  plane waves:    6442
 k-point 17 :   0.1600 0.0400 0.0000  plane waves:    6441
 k-point 18 :   0.2000 0.0400 0.0000  plane waves:    6462
 k-point 19 :   0.2400 0.0400 0.0000  plane waves:    6468
 k-point 20 :   0.2800 0.0400 0.0000  plane waves:    6486
 k-point 21 :   0.3200 0.0400 0.0000  plane waves:    6501
 k-point 22 :   0.3600 0.0400 0.0000  plane waves:    6513
 k-point 23 :   0.4000 0.0400 0.0000  plane waves:    6514
 k-point 24 :   0.4400 0.0400 0.0000  plane waves:    6515
 k-point 25 :   0.4800 0.0400 0.0000  plane waves:    6494
 k-point 26 :   0.0800 0.0800 0.0000  plane waves:    6449
 k-point 27 :   0.1200 0.0800 0.0000  plane waves:    6452
 k-point 28 :   0.1600 0.0800 0.0000  plane waves:    6447
 k-point 29 :   0.2000 0.0800 0.0000  plane waves:    6462
 k-point 30 :   0.2400 0.0800 0.0000  plane waves:    6475
 k-point 31 :   0.2800 0.0800 0.0000  plane waves:    6489
 k-point 32 :   0.3200 0.0800 0.0000  plane waves:    6505
 k-point 33 :   0.3600 0.0800 0.0000  plane waves:    6505
 k-point 34 :   0.4000 0.0800 0.0000  plane waves:    6504
 k-point 35 :   0.4400 0.0800 0.0000  plane waves:    6494
 k-point 36 :   0.1200 0.1200 0.0000  plane waves:    6456
 k-point 37 :   0.1600 0.1200 0.0000  plane waves:    6462
 k-point 38 :   0.2000 0.1200 0.0000  plane waves:    6462
 k-point 39 :   0.2400 0.1200 0.0000  plane waves:    6484
 k-point 40 :   0.2800 0.1200 0.0000  plane waves:    6491
 k-point 41 :   0.3200 0.1200 0.0000  plane waves:    6515
 k-point 42 :   0.3600 0.1200 0.0000  plane waves:    6505
 k-point 43 :   0.4000 0.1200 0.0000  plane waves:    6485
 k-point 44 :   0.4400 0.1200 0.0000  plane waves:    6478
 k-point 45 :   0.1600 0.1600 0.0000  plane waves:    6488
 k-point 46 :   0.2000 0.1600 0.0000  plane waves:    6481
 k-point 47 :   0.2400 0.1600 0.0000  plane waves:    6490
 k-point 48 :   0.2800 0.1600 0.0000  plane waves:    6493
 k-point 49 :   0.3200 0.1600 0.0000  plane waves:    6487
 k-point 50 :   0.3600 0.1600 0.0000  plane waves:    6492
 k-point 51 :   0.4000 0.1600 0.0000  plane waves:    6466
 k-point 52 :   0.2000 0.2000 0.0000  plane waves:    6472
 k-point 53 :   0.2400 0.2000 0.0000  plane waves:    6476
 k-point 54 :   0.2800 0.2000 0.0000  plane waves:    6485
 k-point 55 :   0.3200 0.2000 0.0000  plane waves:    6485
 k-point 56 :   0.3600 0.2000 0.0000  plane waves:    6466
 k-point 57 :   0.4000 0.2000 0.0000  plane waves:    6444
 k-point 58 :   0.2400 0.2400 0.0000  plane waves:    6486
 k-point 59 :   0.2800 0.2400 0.0000  plane waves:    6485
 k-point 60 :   0.3200 0.2400 0.0000  plane waves:    6480
 k-point 61 :   0.3600 0.2400 0.0000  plane waves:    6477
 k-point 62 :   0.2800 0.2800 0.0000  plane waves:    6486
 k-point 63 :   0.3200 0.2800 0.0000  plane waves:    6481
 k-point 64 :   0.3600 0.2800 0.0000  plane waves:    6460
 k-point 65 :   0.3200 0.3200 0.0000  plane waves:    6466

 maximum and minimum number of plane-waves per node :      2188     2134

 maximum number of plane-waves:      6532
 maximum index in each direction: 
   IXMAX=    5   IYMAX=    5   IZMAX=   52
   IXMIN=   -6   IYMIN=   -6   IZMIN=  -52


 parallel 3D FFT for wavefunctions:
    minimum data exchange during FFTs selected (reduces bandwidth)
 parallel 3D FFT for charge:
    minimum data exchange during FFTs selected (reduces bandwidth)


 total amount of memory used by VASP MPI-rank0   121676. kBytes
=======================================================================

   base      :      30000. kBytes
   nonl-proj :      40943. kBytes
   fftplans  :       4013. kBytes
   grid      :       9984. kBytes
   one-center:         62. kBytes
   wavefun   :      36674. kBytes
 
     INWAV:  cpu time    0.0000: real time    0.0002
 Broyden mixing: mesh for mixing (old mesh)
   NGX = 11   NGY = 11   NGZ =105
  (NGX  = 48   NGY  = 48   NGZ  =432)
  gives a total of  12705 points

 initial charge density was supplied:
 charge density of overlapping atoms calculated
 number of electron      46.0000000 magnetization       4.0000000
 keeping initial charge density in first step


--------------------------------------------------------------------------------------------------------


 Maximum index for augmentation-charges         1203 (set IRDMAX)


--------------------------------------------------------------------------------------------------------


 First call to EWALD:  gamma=   0.279
 Maximum number of real-space cells 6x 6x 1
 Maximum number of reciprocal cells 2x 2x11

    FEWALD:  cpu time    0.0030: real time    0.0028


--------------------------------------- Iteration      1(   1)  ---------------------------------------


    POTLOK:  cpu time    0.2620: real time    0.2650
    SETDIJ:  cpu time    0.0110: real time    0.0104
atom =   1  type =  1  l = 2
 
 onsite density matrix
 
spin component  1
 
  0.3836  0.0000  0.0000  0.0000  0.0000
  0.0000  0.3836  0.0000  0.0000  0.0000
  0.0000  0.0000  0.3836  0.0000  0.0000
  0.0000  0.0000  0.0000  0.3836  0.0000
  0.0000  0.0000  0.0000  0.0000  0.3836
 
spin component  2
 
  0.2656  0.0000  0.0000  0.0000  0.0000
  0.0000  0.2656  0.0000  0.0000  0.0000
  0.0000  0.0000  0.2656  0.0000  0.0000
  0.0000  0.0000  0.0000  0.2656  0.0000
  0.0000  0.0000  0.0000  0.0000  0.2656
 
 occupancies and eigenvectors
 
  o =  0.2656  v =  0.0000  0.0000  0.0000  0.0000  0.0000  1.0000  0.0000  0.0000  0.0000  0.0000      0.0000  0.0000  0.0000  0.0000  0.0000  0.0000  0.0000  0.0000  0.0000  0.0000
  o =  0.2656  v =  0.0000  0.0000  0.0000  0.0000  0.0000  0.0000  1.0000  0.0000  0.0000  0.0000      0.0000  0.0000  0.0000  0.0000  0.0000  0.0000  0.0000  0.0000  0.0000  0.0000
  o =  0.2656  v =  0.0000  0.0000  0.0000  0.0000  0.0000  0.0000  0.0000  1.0000  0.0000  0.0000      0.0000  0.0000  0.0000  0.0000  0.0000  0.0000  0.0000  0.0000  0.0000  0.0000
  o =  0.2656  v =  0.0000  0.0000  0.0000  0.0000  0.0000  0.0000  0.0000  0.0000  1.0000  0.0000      0.0000  0.0000  0.0000  0.0000  0.0000  0.0000  0.0000  0.0000  0.0000  0.0000
  o =  0.2656  v =  0.0000  0.0000  0.0000  0.0000  0.0000  0.0000  0.0000  0.0000  0.0000  1.0000      0.0000  0.0000  0.0000  0.0000  0.0000  0.0000  0.0000  0.0000  0.0000  0.0000
  o =  0.3836  v =  1.0000  0.0000  0.0000  0.0000  0.0000  0.0000  0.0000  0.0000  0.0000  0.0000      0.0000  0.0000  0.0000  0.0000  0.0000  0.0000  0.0000  0.0000  0.0000  0.0000
  o =  0.3836  v =  0.0000  1.0000  0.0000  0.0000  0.0000  0.0000  0.0000  0.0000  0.0000  0.0000      0.0000  0.0000  0.0000  0.0000  0.0000  0.0000  0.0000  0.0000  0.0000  0.0000
  o =  0.3836  v =  0.0000  0.0000  1.0000  0.0000  0.0000  0.0000  0.0000  0.0000  0.0000  0.0000      0.0000  0.0000  0.0000  0.0000  0.0000  0.0000  0.0000  0.0000  0.0000  0.0000
  o =  0.3836  v =  0.0000  0.0000  0.0000  1.0000  0.0000  0.0000  0.0000  0.0000  0.0000  0.0000      0.0000  0.0000  0.0000  0.0000  0.0000  0.0000  0.0000  0.0000  0.0000  0.0000
  o =  0.3836  v =  0.0000  0.0000  0.0000  0.0000  1.0000  0.0000  0.0000  0.0000  0.0000  0.0000      0.0000  0.0000  0.0000  0.0000  0.0000  0.0000  0.0000  0.0000  0.0000  0.0000
atom =   2  type =  1  l = 2
 
 onsite density matrix
 
spin component  1
 
  0.3836  0.0000  0.0000  0.0000  0.0000
  0.0000  0.3836  0.0000  0.0000  0.0000
  0.0000  0.0000  0.3836  0.0000  0.0000
  0.0000  0.0000  0.0000  0.3836  0.0000
  0.0000  0.0000  0.0000  0.0000  0.3836
 
spin component  2
 
  0.2656  0.0000  0.0000  0.0000  0.0000
  0.0000  0.2656  0.0000  0.0000  0.0000
  0.0000  0.0000  0.2656  0.0000  0.0000
  0.0000  0.0000  0.0000  0.2656  0.0000
  0.0000  0.0000  0.0000  0.0000  0.2656
 
 occupancies and eigenvectors
 
  o =  0.2656  v =  0.0000  0.0000  0.0000  0.0000  0.0000  1.0000  0.0000  0.0000  0.0000  0.0000      0.0000  0.0000  0.0000  0.0000  0.0000  0.0000  0.0000  0.0000  0.0000  0.0000
  o =  0.2656  v =  0.0000  0.0000  0.0000  0.0000  0.0000  0.0000  1.0000  0.0000  0.0000  0.0000      0.0000  0.0000  0.0000  0.0000  0.0000  0.0000  0.0000  0.0000  0.0000  0.0000
  o =  0.2656  v =  0.0000  0.0000  0.0000  0.0000  0.0000  0.0000  0.0000  1.0000  0.0000  0.0000      0.0000  0.0000  0.0000  0.0000  0.0000  0.0000  0.0000  0.0000  0.0000  0.0000
  o =  0.2656  v =  0.0000  0.0000  0.0000  0.0000  0.0000  0.0000  0.0000  0.0000  1.0000  0.0000      0.0000  0.0000  0.0000  0.0000  0.0000  0.0000  0.0000  0.0000  0.0000  0.0000
  o =  0.2656  v =  0.0000  0.0000  0.0000  0.0000  0.0000  0.0000  0.0000  0.0000  0.0000  1.0000      0.0000  0.0000  0.0000  0.0000  0.0000  0.0000  0.0000  0.0000  0.0000  0.0000
  o =  0.3836  v =  1.0000  0.0000  0.0000  0.0000  0.0000  0.0000  0.0000  0.0000  0.0000  0.0000      0.0000  0.0000  0.0000  0.0000  0.0000  0.0000  0.0000  0.0000  0.0000  0.0000
  o =  0.3836  v =  0.0000  1.0000  0.0000  0.0000  0.0000  0.0000  0.0000  0.0000  0.0000  0.0000      0.0000  0.0000  0.0000  0.0000  0.0000  0.0000  0.0000  0.0000  0.0000  0.0000
  o =  0.3836  v =  0.0000  0.0000  1.0000  0.0000  0.0000  0.0000  0.0000  0.0000  0.0000  0.0000      0.0000  0.0000  0.0000  0.0000  0.0000  0.0000  0.0000  0.0000  0.0000  0.0000
  o =  0.3836  v =  0.0000  0.0000  0.0000  1.0000  0.0000  0.0000  0.0000  0.0000  0.0000  0.0000      0.0000  0.0000  0.0000  0.0000  0.0000  0.0000  0.0000  0.0000  0.0000  0.0000
  o =  0.3836  v =  0.0000  0.0000  0.0000  0.0000  1.0000  0.0000  0.0000  0.0000  0.0000  0.0000      0.0000  0.0000  0.0000  0.0000  0.0000  0.0000  0.0000  0.0000  0.0000  0.0000
     EDDAV:  cpu time   25.5721: real time   25.7419
 BZINTS: Fermi energy: 12.147128; 46.000000 electrons
         Band energy:-242.831385;  BLOECHL correction: -0.109703
       DOS:  cpu time    0.0330: real time    0.0341
    --------------------------------------------
      LOOP:  cpu time   25.8781: real time   26.0514

 eigenvalue-minimisations  : 10032
 total energy-change (2. order) : 0.4015310E+03  (-0.2146992E+04)
 number of electron      46.0000000 magnetization       4.0000000
 augmentation part       46.0000000 magnetization       4.0000000

 DIPCOR: dipole corrections for dipol
 direction  3 min pos   270,
 dipolmoment           0.000000      0.000000     -0.000042 electrons x Angstroem
 Tr[quadrupol]       -48.332916

 energy correction for charged system         0.000000 eV
 dipol+quadrupol energy correction           -0.000000 eV
 added-field ion interaction          0.001276 eV  (added to PSCEN)


 Free energy of the ion-electron system (eV)
  ---------------------------------------------------
  alpha Z        PSCENC =        63.27148871
  Ewald energy   TEWEN  =     17390.22404797
  -Hartree energ DENC   =    -20727.96225693
  -exchange      EXHF   =         0.00000000
  -V(xc)+E(xc)   XCENC  =       106.35186889
  PAW double counting   =      3045.60422107    -2983.64063932
  entropy T*S    EENTRO =         0.00000000
  eigenvalues    EBANDS =      -242.83138546
  atomic energy  EATOM  =      3750.51368352
  Solvation  Ediel_sol  =         0.00000000
  ---------------------------------------------------
  free energy    TOTEN  =       401.53102846 eV

  energy without entropy =      401.53102846  energy(sigma->0) =      401.53102846


--------------------------------------------------------------------------------------------------------




--------------------------------------- Iteration      1(   2)  ---------------------------------------


     EDDAV:  cpu time   23.9014: real time   24.0522
 BZINTS: Fermi energy:  1.304509; 46.000000 electrons
         Band energy:-636.248852;  BLOECHL correction: -0.083066
       DOS:  cpu time    0.0270: real time    0.0270
    --------------------------------------------
      LOOP:  cpu time   23.9284: real time   24.0792

 eigenvalue-minimisations  :  9144
 total energy-change (2. order) :-0.3934175E+03  (-0.3783386E+03)
 number of electron      46.0000000 magnetization       4.0000000
 augmentation part       46.0000000 magnetization       4.0000000

 DIPCOR: dipole corrections for dipol
 direction  3 min pos   270,
 dipolmoment           0.000000      0.000000     -0.000042 electrons x Angstroem
 Tr[quadrupol]       -48.332916

 energy correction for charged system         0.000000 eV
 dipol+quadrupol energy correction           -0.000000 eV
 added-field ion interaction          0.001276 eV  (added to PSCEN)


 Free energy of the ion-electron system (eV)
  ---------------------------------------------------
  alpha Z        PSCENC =        63.27148871
  Ewald energy   TEWEN  =     17390.22404797
  -Hartree energ DENC   =    -20727.96225693
  -exchange      EXHF   =         0.00000000
  -V(xc)+E(xc)   XCENC  =       106.35186889
  PAW double counting   =      3045.60422107    -2983.64063932
  entropy T*S    EENTRO =         0.00000000
  eigenvalues    EBANDS =      -636.24885239
  atomic energy  EATOM  =      3750.51368352
  Solvation  Ediel_sol  =         0.00000000
  ---------------------------------------------------
  free energy    TOTEN  =         8.11356153 eV

  energy without entropy =        8.11356153  energy(sigma->0) =        8.11356153


--------------------------------------------------------------------------------------------------------




--------------------------------------- Iteration      1(   3)  ---------------------------------------


     EDDAV:  cpu time   28.2787: real time   28.3982
 BZINTS: Fermi energy: -0.071198; 46.000000 electrons
         Band energy:-686.818880;  BLOECHL correction: -0.009565
       DOS:  cpu time    0.0290: real time    0.0296
    --------------------------------------------
      LOOP:  cpu time   28.3077: real time   28.4278

 eigenvalue-minimisations  : 11432
 total energy-change (2. order) :-0.5057003E+02  (-0.4808015E+02)
 number of electron      46.0000000 magnetization       4.0000000
 augmentation part       46.0000000 magnetization       4.0000000

 DIPCOR: dipole corrections for dipol
 direction  3 min pos   270,
 dipolmoment           0.000000      0.000000     -0.000042 electrons x Angstroem
 Tr[quadrupol]       -48.332916

 energy correction for charged system         0.000000 eV
 dipol+quadrupol energy correction           -0.000000 eV
 added-field ion interaction          0.001276 eV  (added to PSCEN)


 Free energy of the ion-electron system (eV)
  ---------------------------------------------------
  alpha Z        PSCENC =        63.27148871
  Ewald energy   TEWEN  =     17390.22404797
  -Hartree energ DENC   =    -20727.96225693
  -exchange      EXHF   =         0.00000000
  -V(xc)+E(xc)   XCENC  =       106.35186889
  PAW double counting   =      3045.60422107    -2983.64063932
  entropy T*S    EENTRO =         0.00000000
  eigenvalues    EBANDS =      -686.81887977
  atomic energy  EATOM  =      3750.51368352
  Solvation  Ediel_sol  =         0.00000000
  ---------------------------------------------------
  free energy    TOTEN  =       -42.45646585 eV

  energy without entropy =      -42.45646585  energy(sigma->0) =      -42.45646585


--------------------------------------------------------------------------------------------------------




--------------------------------------- Iteration      1(   4)  ---------------------------------------


     EDDAV:  cpu time   26.3360: real time   29.5105
 BZINTS: Fermi energy: -0.122680; 46.000000 electrons
         Band energy:-688.778680;  BLOECHL correction: -0.009081
       DOS:  cpu time    0.0290: real time    0.0294
    --------------------------------------------
      LOOP:  cpu time   26.3650: real time   29.5399

 eigenvalue-minimisations  : 10432
 total energy-change (2. order) :-0.1959800E+01  (-0.1944809E+01)
 number of electron      46.0000000 magnetization       4.0000000
 augmentation part       46.0000000 magnetization       4.0000000

 DIPCOR: dipole corrections for dipol
 direction  3 min pos   270,
 dipolmoment           0.000000      0.000000     -0.000042 electrons x Angstroem
 Tr[quadrupol]       -48.332916

 energy correction for charged system         0.000000 eV
 dipol+quadrupol energy correction           -0.000000 eV
 added-field ion interaction          0.001276 eV  (added to PSCEN)


 Free energy of the ion-electron system (eV)
  ---------------------------------------------------
  alpha Z        PSCENC =        63.27148871
  Ewald energy   TEWEN  =     17390.22404797
  -Hartree energ DENC   =    -20727.96225693
  -exchange      EXHF   =         0.00000000
  -V(xc)+E(xc)   XCENC  =       106.35186889
  PAW double counting   =      3045.60422107    -2983.64063932
  entropy T*S    EENTRO =         0.00000000
  eigenvalues    EBANDS =      -688.77867981
  atomic energy  EATOM  =      3750.51368352
  Solvation  Ediel_sol  =         0.00000000
  ---------------------------------------------------
  free energy    TOTEN  =       -44.41626589 eV

  energy without entropy =      -44.41626589  energy(sigma->0) =      -44.41626589


--------------------------------------------------------------------------------------------------------




--------------------------------------- Iteration      1(   5)  ---------------------------------------


     EDDAV:  cpu time   27.8558: real time   27.9718
 BZINTS: Fermi energy: -0.125011; 46.000000 electrons
         Band energy:-688.845262;  BLOECHL correction: -0.009095
       DOS:  cpu time    0.0290: real time    0.0285
    CHARGE:  cpu time    0.8659: real time    0.8698
    MIXING:  cpu time    0.0090: real time    0.0089
    --------------------------------------------
      LOOP:  cpu time   28.7596: real time   28.8790

 eigenvalue-minimisations  : 11256
 total energy-change (2. order) :-0.6658189E-01  (-0.6652770E-01)
 number of electron      46.0000020 magnetization       3.8159033
 augmentation part        4.0240600 magnetization       3.0675248

 DIPCOR: dipole corrections for dipol
 direction  3 min pos   270,
 dipolmoment           0.000000      0.000000     -0.000042 electrons x Angstroem
 Tr[quadrupol]       -48.332916

 energy correction for charged system         0.000000 eV
 dipol+quadrupol energy correction           -0.000000 eV
 added-field ion interaction          0.001276 eV  (added to PSCEN)


 Broyden mixing:
  rms(total) = 0.35062E+01    rms(broyden)= 0.35061E+01
  rms(prec ) = 0.35669E+01
  weight for this iteration     100.00

 Free energy of the ion-electron system (eV)
  ---------------------------------------------------
  alpha Z        PSCENC =        63.27148871
  Ewald energy   TEWEN  =     17390.22404797
  -Hartree energ DENC   =    -20727.96225693
  -exchange      EXHF   =         0.00000000
  -V(xc)+E(xc)   XCENC  =       106.35186889
  PAW double counting   =      3045.60422107    -2983.64063932
  entropy T*S    EENTRO =         0.00000000
  eigenvalues    EBANDS =      -688.84526169
  atomic energy  EATOM  =      3750.51368352
  Solvation  Ediel_sol  =         0.00000000
  ---------------------------------------------------
  free energy    TOTEN  =       -44.48284778 eV

  energy without entropy =      -44.48284778  energy(sigma->0) =      -44.48284778


--------------------------------------------------------------------------------------------------------




--------------------------------------- Iteration      1(   6)  ---------------------------------------


    POTLOK:  cpu time    0.2680: real time    0.2702
    SETDIJ:  cpu time    0.0120: real time    0.0136
atom =   1  type =  1  l = 2
 
 onsite density matrix
 
spin component  1
 
  0.3139 -0.0000 -0.0000  0.0407 -0.0000
 -0.0000  0.3236  0.0000  0.0000  0.0407
 -0.0000  0.0000  0.3820 -0.0000  0.0000
  0.0407  0.0000 -0.0000  0.3236  0.0000
 -0.0000  0.0407  0.0000  0.0000  0.3139
 
spin component  2
 
  0.2054  0.0000  0.0000 -0.0529 -0.0000
  0.0000  0.2296 -0.0000 -0.0000 -0.0529
  0.0000 -0.0000  0.1455  0.0000 -0.0000
 -0.0529 -0.0000  0.0000  0.2296 -0.0000
 -0.0000 -0.0529 -0.0000 -0.0000  0.2054
 
 occupancies and eigenvectors
 
  o =  0.1455  v =  0.0000  0.0000  0.0000  0.0000  0.0000 -0.0000  0.0000  1.0000 -0.0000  0.0000      0.0000  0.0000  0.0000  0.0000  0.0000  0.0000  0.0000  0.0000  0.0000  0.0000
  o =  0.1632  v =  0.0000  0.0000  0.0000  0.0000  0.0000 -0.5349 -0.4547 -0.0000 -0.4264 -0.5704      0.0000  0.0000  0.0000  0.0000  0.0000  0.0000  0.0000  0.0000  0.0000  0.0000
  o =  0.1632  v =  0.0000  0.0000  0.0000  0.0000  0.0000  0.5704 -0.4264  0.0000  0.4547 -0.5349      0.0000  0.0000  0.0000  0.0000  0.0000  0.0000  0.0000  0.0000  0.0000  0.0000
  o =  0.2718  v =  0.0000  0.0000  0.0000  0.0000  0.0000 -0.4548 -0.5347 -0.0000  0.5707  0.4262      0.0000  0.0000  0.0000  0.0000  0.0000  0.0000  0.0000  0.0000  0.0000  0.0000
  o =  0.2718  v =  0.0000  0.0000  0.0000  0.0000  0.0000  0.4262 -0.5707  0.0000 -0.5347  0.4548      0.0000  0.0000  0.0000  0.0000  0.0000  0.0000  0.0000  0.0000  0.0000  0.0000
  o =  0.2778  v = -0.5455 -0.4541 -0.0000  0.4842  0.5116  0.0000  0.0000  0.0000  0.0000  0.0000      0.0000  0.0000  0.0000  0.0000  0.0000  0.0000  0.0000  0.0000  0.0000  0.0000
  o =  0.2778  v = -0.5116  0.4842 -0.0000  0.4541 -0.5455  0.0000  0.0000  0.0000  0.0000  0.0000      0.0000  0.0000  0.0000  0.0000  0.0000  0.0000  0.0000  0.0000  0.0000  0.0000
  o =  0.3597  v = -0.4842  0.5116 -0.0000 -0.5455  0.4541  0.0000  0.0000  0.0000  0.0000  0.0000      0.0000  0.0000  0.0000  0.0000  0.0000  0.0000  0.0000  0.0000  0.0000  0.0000
  o =  0.3597  v = -0.4541 -0.5455 -0.0000 -0.5116 -0.4842  0.0000  0.0000  0.0000  0.0000  0.0000      0.0000  0.0000  0.0000  0.0000  0.0000  0.0000  0.0000  0.0000  0.0000  0.0000
  o =  0.3820  v = -0.0000  0.0000  1.0000 -0.0000  0.0000  0.0000  0.0000  0.0000  0.0000  0.0000      0.0000  0.0000  0.0000  0.0000  0.0000  0.0000  0.0000  0.0000  0.0000  0.0000
atom =   2  type =  1  l = 2
 
 onsite density matrix
 
spin component  1
 
  0.3139 -0.0000 -0.0000  0.0407 -0.0000
 -0.0000  0.3236  0.0000  0.0000  0.0407
 -0.0000  0.0000  0.3820 -0.0000  0.0000
  0.0407  0.0000 -0.0000  0.3236  0.0000
 -0.0000  0.0407  0.0000  0.0000  0.3139
 
spin component  2
 
  0.2054  0.0000  0.0000 -0.0529 -0.0000
  0.0000  0.2296 -0.0000 -0.0000 -0.0529
  0.0000 -0.0000  0.1455  0.0000 -0.0000
 -0.0529 -0.0000  0.0000  0.2296 -0.0000
 -0.0000 -0.0529 -0.0000 -0.0000  0.2054
 
 occupancies and eigenvectors
 
  o =  0.1455  v =  0.0000  0.0000  0.0000  0.0000  0.0000 -0.0000  0.0000  1.0000 -0.0000  0.0000      0.0000  0.0000  0.0000  0.0000  0.0000  0.0000  0.0000  0.0000  0.0000  0.0000
  o =  0.1632  v =  0.0000  0.0000  0.0000  0.0000  0.0000 -0.5349 -0.4547 -0.0000 -0.4264 -0.5704      0.0000  0.0000  0.0000  0.0000  0.0000  0.0000  0.0000  0.0000  0.0000  0.0000
  o =  0.1632  v =  0.0000  0.0000  0.0000  0.0000  0.0000  0.5704 -0.4264  0.0000  0.4547 -0.5349      0.0000  0.0000  0.0000  0.0000  0.0000  0.0000  0.0000  0.0000  0.0000  0.0000
  o =  0.2718  v =  0.0000  0.0000  0.0000  0.0000  0.0000 -0.4548 -0.5348 -0.0000  0.5705  0.4262      0.0000  0.0000  0.0000  0.0000  0.0000  0.0000  0.0000  0.0000  0.0000  0.0000
  o =  0.2718  v =  0.0000  0.0000  0.0000  0.0000  0.0000  0.4262 -0.5705  0.0000 -0.5348  0.4548      0.0000  0.0000  0.0000  0.0000  0.0000  0.0000  0.0000  0.0000  0.0000  0.0000
  o =  0.2778  v = -0.5456 -0.4540 -0.0000  0.4842  0.5116  0.0000  0.0000  0.0000  0.0000  0.0000      0.0000  0.0000  0.0000  0.0000  0.0000  0.0000  0.0000  0.0000  0.0000  0.0000
  o =  0.2778  v = -0.5116  0.4842 -0.0000  0.4540 -0.5456  0.0000  0.0000  0.0000  0.0000  0.0000      0.0000  0.0000  0.0000  0.0000  0.0000  0.0000  0.0000  0.0000  0.0000  0.0000
  o =  0.3597  v = -0.4842  0.5116 -0.0000 -0.5455  0.4541  0.0000  0.0000  0.0000  0.0000  0.0000      0.0000  0.0000  0.0000  0.0000  0.0000  0.0000  0.0000  0.0000  0.0000  0.0000
  o =  0.3597  v = -0.4541 -0.5455 -0.0000 -0.5116 -0.4842  0.0000  0.0000  0.0000  0.0000  0.0000      0.0000  0.0000  0.0000  0.0000  0.0000  0.0000  0.0000  0.0000  0.0000  0.0000
  o =  0.3820  v = -0.0000  0.0000  1.0000 -0.0000  0.0000  0.0000  0.0000  0.0000  0.0000  0.0000      0.0000  0.0000  0.0000  0.0000  0.0000  0.0000  0.0000  0.0000  0.0000  0.0000
     EDDAV:  cpu time   28.1847: real time   28.3037
 BZINTS: Fermi energy: -3.336191; 46.000000 electrons
         Band energy:-789.583632;  BLOECHL correction: -0.011441
       DOS:  cpu time    0.0270: real time    0.0273
    CHARGE:  cpu time    0.8879: real time    0.8901
    MIXING:  cpu time    0.0090: real time    0.0088
    --------------------------------------------
      LOOP:  cpu time   29.3885: real time   29.5137

 eigenvalue-minimisations  : 11472
 total energy-change (2. order) :-0.1133367E+01  (-0.5880435E+01)
 number of electron      46.0000034 magnetization       3.7530146
 augmentation part       10.0812923 magnetization       2.4433547

 DIPCOR: dipole corrections for dipol
 direction  3 min pos   298,
 dipolmoment           0.000000      0.000000      0.004297 electrons x Angstroem
 Tr[quadrupol]       -47.961959

 energy correction for charged system         0.000000 eV
 dipol+quadrupol energy correction           -0.000007 eV
 added-field ion interaction          0.131767 eV  (added to PSCEN)


 Broyden mixing:
  rms(total) = 0.36521E+01    rms(broyden)= 0.36518E+01
  rms(prec ) = 0.38752E+01
  weight for this iteration     100.00

 eigenvalues of (default mixing * dielectric matrix)
  average eigenvalue GAMMA=   0.5273
  0.5273

 Free energy of the ion-electron system (eV)
  ---------------------------------------------------
  alpha Z        PSCENC =        63.40197346
  Ewald energy   TEWEN  =     17390.22404797
  -Hartree energ DENC   =    -20616.49596848
  -exchange      EXHF   =         0.00000000
  -V(xc)+E(xc)   XCENC  =       103.60284154
  PAW double counting   =      3690.00961289    -3637.28877321
  entropy T*S    EENTRO =         0.00000000
  eigenvalues    EBANDS =      -789.58363220
  atomic energy  EATOM  =      3750.51368352
  Solvation  Ediel_sol  =         0.00000000
  ---------------------------------------------------
  free energy    TOTEN  =       -45.61621450 eV

  energy without entropy =      -45.61621450  energy(sigma->0) =      -45.61621450


--------------------------------------------------------------------------------------------------------




--------------------------------------- Iteration      1(   7)  ---------------------------------------


    POTLOK:  cpu time    0.2580: real time    0.2635
    SETDIJ:  cpu time    0.0110: real time    0.0101
atom =   1  type =  1  l = 2
 
 onsite density matrix
 
spin component  1
 
  0.3825 -0.0000 -0.0000  0.0349 -0.0000
 -0.0000  0.3599  0.0000  0.0000  0.0349
 -0.0000  0.0000  0.4438 -0.0000  0.0000
  0.0349  0.0000 -0.0000  0.3599  0.0000
 -0.0000  0.0349  0.0000  0.0000  0.3825
 
spin component  2
 
  0.2558  0.0000 -0.0000 -0.0407 -0.0000
  0.0000  0.3098 -0.0000  0.0000 -0.0407
 -0.0000 -0.0000  0.1788  0.0000  0.0000
 -0.0407  0.0000  0.0000  0.3098 -0.0000
 -0.0000 -0.0407  0.0000 -0.0000  0.2558
 
 occupancies and eigenvectors
 
  o =  0.1788  v =  0.0000  0.0000  0.0000  0.0000  0.0000 -0.0000  0.0000 -1.0000 -0.0000  0.0000      0.0000  0.0000  0.0000  0.0000  0.0000  0.0000  0.0000  0.0000  0.0000  0.0000
  o =  0.2340  v =  0.0000  0.0000  0.0000  0.0000  0.0000 -0.6427  0.3235  0.0000 -0.3450  0.6027      0.0000  0.0000  0.0000  0.0000  0.0000  0.0000  0.0000  0.0000  0.0000  0.0000
  o =  0.2340  v =  0.0000  0.0000  0.0000  0.0000  0.0000 -0.6027 -0.3450  0.0000 -0.3235 -0.6427      0.0000  0.0000  0.0000  0.0000  0.0000  0.0000  0.0000  0.0000  0.0000  0.0000
  o =  0.3316  v =  0.0000  0.0000  0.0000  0.0000  0.0000 -0.3450 -0.6027  0.0000  0.6427  0.3235      0.0000  0.0000  0.0000  0.0000  0.0000  0.0000  0.0000  0.0000  0.0000  0.0000
  o =  0.3316  v =  0.0000  0.0000  0.0000  0.0000  0.0000  0.3235 -0.6427 -0.0000 -0.6027  0.3450      0.0000  0.0000  0.0000  0.0000  0.0000  0.0000  0.0000  0.0000  0.0000  0.0000
  o =  0.3345  v =  0.4292  0.5531  0.0000 -0.5898 -0.4025  0.0000  0.0000  0.0000  0.0000  0.0000      0.0000  0.0000  0.0000  0.0000  0.0000  0.0000  0.0000  0.0000  0.0000  0.0000
  o =  0.3345  v =  0.4025 -0.5898  0.0000 -0.5531  0.4292  0.0000  0.0000  0.0000  0.0000  0.0000      0.0000  0.0000  0.0000  0.0000  0.0000  0.0000  0.0000  0.0000  0.0000  0.0000
  o =  0.4079  v =  0.5898 -0.4025  0.0000  0.4292 -0.5531  0.0000  0.0000  0.0000  0.0000  0.0000      0.0000  0.0000  0.0000  0.0000  0.0000  0.0000  0.0000  0.0000  0.0000  0.0000
  o =  0.4079  v =  0.5531  0.4292  0.0000  0.4025  0.5898  0.0000  0.0000  0.0000  0.0000  0.0000      0.0000  0.0000  0.0000  0.0000  0.0000  0.0000  0.0000  0.0000  0.0000  0.0000
  o =  0.4438  v = -0.0000  0.0000  1.0000 -0.0000  0.0000  0.0000  0.0000  0.0000  0.0000  0.0000      0.0000  0.0000  0.0000  0.0000  0.0000  0.0000  0.0000  0.0000  0.0000  0.0000
atom =   2  type =  1  l = 2
 
 onsite density matrix
 
spin component  1
 
  0.3825 -0.0000 -0.0000  0.0349 -0.0000
 -0.0000  0.3599  0.0000  0.0000  0.0349
 -0.0000  0.0000  0.4438 -0.0000  0.0000
  0.0349  0.0000 -0.0000  0.3599  0.0000
 -0.0000  0.0349  0.0000  0.0000  0.3825
 
spin component  2
 
  0.2558  0.0000 -0.0000 -0.0407 -0.0000
  0.0000  0.3098 -0.0000  0.0000 -0.0407
 -0.0000 -0.0000  0.1788  0.0000  0.0000
 -0.0407  0.0000  0.0000  0.3098 -0.0000
 -0.0000 -0.0407  0.0000 -0.0000  0.2558
 
 occupancies and eigenvectors
 
  o =  0.1788  v =  0.0000  0.0000  0.0000  0.0000  0.0000 -0.0000  0.0000 -1.0000 -0.0000  0.0000      0.0000  0.0000  0.0000  0.0000  0.0000  0.0000  0.0000  0.0000  0.0000  0.0000
  o =  0.2340  v =  0.0000  0.0000  0.0000  0.0000  0.0000 -0.6427  0.3235  0.0000 -0.3450  0.6027      0.0000  0.0000  0.0000  0.0000  0.0000  0.0000  0.0000  0.0000  0.0000  0.0000
  o =  0.2340  v =  0.0000  0.0000  0.0000  0.0000  0.0000 -0.6027 -0.3450  0.0000 -0.3235 -0.6427      0.0000  0.0000  0.0000  0.0000  0.0000  0.0000  0.0000  0.0000  0.0000  0.0000
  o =  0.3316  v =  0.0000  0.0000  0.0000  0.0000  0.0000 -0.3450 -0.6026  0.0000  0.6427  0.3235      0.0000  0.0000  0.0000  0.0000  0.0000  0.0000  0.0000  0.0000  0.0000  0.0000
  o =  0.3316  v =  0.0000  0.0000  0.0000  0.0000  0.0000  0.3235 -0.6427 -0.0000 -0.6026  0.3450      0.0000  0.0000  0.0000  0.0000  0.0000  0.0000  0.0000  0.0000  0.0000  0.0000
  o =  0.3345  v =  0.4292  0.5531  0.0000 -0.5898 -0.4025  0.0000  0.0000  0.0000  0.0000  0.0000      0.0000  0.0000  0.0000  0.0000  0.0000  0.0000  0.0000  0.0000  0.0000  0.0000
  o =  0.3345  v =  0.4025 -0.5898  0.0000 -0.5531  0.4292  0.0000  0.0000  0.0000  0.0000  0.0000      0.0000  0.0000  0.0000  0.0000  0.0000  0.0000  0.0000  0.0000  0.0000  0.0000
  o =  0.4079  v =  0.5898 -0.4025  0.0000  0.4292 -0.5531  0.0000  0.0000  0.0000  0.0000  0.0000      0.0000  0.0000  0.0000  0.0000  0.0000  0.0000  0.0000  0.0000  0.0000  0.0000
  o =  0.4079  v =  0.5531  0.4292  0.0000  0.4025  0.5898  0.0000  0.0000  0.0000  0.0000  0.0000      0.0000  0.0000  0.0000  0.0000  0.0000  0.0000  0.0000  0.0000  0.0000  0.0000
  o =  0.4438  v = -0.0000  0.0000  1.0000 -0.0000  0.0000  0.0000  0.0000  0.0000  0.0000  0.0000      0.0000  0.0000  0.0000  0.0000  0.0000  0.0000  0.0000  0.0000  0.0000  0.0000
     EDDAV:  cpu time   27.6658: real time   27.7997
 BZINTS: Fermi energy:  0.207319; 46.000000 electrons
         Band energy:-671.360740;  BLOECHL correction: -0.009658
       DOS:  cpu time    0.0230: real time    0.0241
    CHARGE:  cpu time    0.8729: real time    0.8744
    MIXING:  cpu time    0.0090: real time    0.0090
    --------------------------------------------
      LOOP:  cpu time   28.8396: real time   28.9807

 eigenvalue-minimisations  : 11224
 total energy-change (2. order) : 0.4342085E+01  (-0.9630590E+01)
 number of electron      46.0000021 magnetization       3.5631452
 augmentation part        4.4672931 magnetization       2.7771675

 DIPCOR: dipole corrections for dipol
 direction  3 min pos   292,
 dipolmoment           0.000000      0.000000     -0.002989 electrons x Angstroem
 Tr[quadrupol]       -48.911161

 energy correction for charged system         0.000000 eV
 dipol+quadrupol energy correction           -0.000003 eV
 added-field ion interaction         -0.052418 eV  (added to PSCEN)


 Broyden mixing:
  rms(total) = 0.20434E+01    rms(broyden)= 0.20432E+01
  rms(prec ) = 0.21210E+01
  weight for this iteration     100.00

 eigenvalues of (default mixing * dielectric matrix)
  average eigenvalue GAMMA=   0.6877
  1.0541  0.3212

 Free energy of the ion-electron system (eV)
  ---------------------------------------------------
  alpha Z        PSCENC =        63.21779160
  Ewald energy   TEWEN  =     17390.22404797
  -Hartree energ DENC   =    -20738.71551608
  -exchange      EXHF   =         0.00000000
  -V(xc)+E(xc)   XCENC  =       105.87831352
  PAW double counting   =      4008.77636950    -3949.80807874
  entropy T*S    EENTRO =         0.00000000
  eigenvalues    EBANDS =      -671.36074036
  atomic energy  EATOM  =      3750.51368352
  Solvation  Ediel_sol  =         0.00000000
  ---------------------------------------------------
  free energy    TOTEN  =       -41.27412907 eV

  energy without entropy =      -41.27412907  energy(sigma->0) =      -41.27412907


--------------------------------------------------------------------------------------------------------




--------------------------------------- Iteration      1(   8)  ---------------------------------------


    POTLOK:  cpu time    0.2560: real time    0.2589
    SETDIJ:  cpu time    0.0110: real time    0.0102
atom =   1  type =  1  l = 2
 
 onsite density matrix
 
spin component  1
 
  0.3390 -0.0000 -0.0000  0.0149 -0.0000
 -0.0000  0.3429  0.0000  0.0000  0.0149
 -0.0000  0.0000  0.3997 -0.0000  0.0000
  0.0149  0.0000 -0.0000  0.3429  0.0000
 -0.0000  0.0149  0.0000  0.0000  0.3390
 
spin component  2
 
  0.2600  0.0000 -0.0000 -0.0306  0.0000
  0.0000  0.3074 -0.0000  0.0000 -0.0306
 -0.0000 -0.0000  0.1954  0.0000  0.0000
 -0.0306  0.0000  0.0000  0.3074 -0.0000
  0.0000 -0.0306  0.0000 -0.0000  0.2600
 
 occupancies and eigenvectors
 
  o =  0.1954  v =  0.0000  0.0000  0.0000  0.0000  0.0000 -0.0000  0.0000 -1.0000 -0.0000  0.0000      0.0000  0.0000  0.0000  0.0000  0.0000  0.0000  0.0000  0.0000  0.0000  0.0000
  o =  0.2450  v =  0.0000  0.0000  0.0000  0.0000  0.0000 -0.6548  0.3015  0.0000 -0.3217  0.6138      0.0000  0.0000  0.0000  0.0000  0.0000  0.0000  0.0000  0.0000  0.0000  0.0000
  o =  0.2450  v =  0.0000  0.0000  0.0000  0.0000  0.0000  0.6138  0.3217 -0.0000  0.3015  0.6548      0.0000  0.0000  0.0000  0.0000  0.0000  0.0000  0.0000  0.0000  0.0000  0.0000
  o =  0.3224  v =  0.0000  0.0000  0.0000  0.0000  0.0000 -0.3216 -0.6140  0.0000  0.6547  0.3016      0.0000  0.0000  0.0000  0.0000  0.0000  0.0000  0.0000  0.0000  0.0000  0.0000
  o =  0.3224  v =  0.0000  0.0000  0.0000  0.0000  0.0000  0.3016 -0.6547 -0.0000 -0.6140  0.3216      0.0000  0.0000  0.0000  0.0000  0.0000  0.0000  0.0000  0.0000  0.0000  0.0000
  o =  0.3259  v = -0.5483 -0.4511 -0.0000  0.4812  0.5141  0.0000  0.0000  0.0000  0.0000  0.0000      0.0000  0.0000  0.0000  0.0000  0.0000  0.0000  0.0000  0.0000  0.0000  0.0000
  o =  0.3259  v = -0.5141  0.4812 -0.0000  0.4511 -0.5483  0.0000  0.0000  0.0000  0.0000  0.0000      0.0000  0.0000  0.0000  0.0000  0.0000  0.0000  0.0000  0.0000  0.0000  0.0000
  o =  0.3560  v = -0.4812  0.5141 -0.0000 -0.5483  0.4512  0.0000  0.0000  0.0000  0.0000  0.0000      0.0000  0.0000  0.0000  0.0000  0.0000  0.0000  0.0000  0.0000  0.0000  0.0000
  o =  0.3560  v = -0.4512 -0.5483 -0.0000 -0.5141 -0.4812  0.0000  0.0000  0.0000  0.0000  0.0000      0.0000  0.0000  0.0000  0.0000  0.0000  0.0000  0.0000  0.0000  0.0000  0.0000
  o =  0.3997  v = -0.0000  0.0000  1.0000 -0.0000  0.0000  0.0000  0.0000  0.0000  0.0000  0.0000      0.0000  0.0000  0.0000  0.0000  0.0000  0.0000  0.0000  0.0000  0.0000  0.0000
atom =   2  type =  1  l = 2
 
 onsite density matrix
 
spin component  1
 
  0.3390 -0.0000 -0.0000  0.0149 -0.0000
 -0.0000  0.3429  0.0000  0.0000  0.0149
 -0.0000  0.0000  0.3997 -0.0000  0.0000
  0.0149  0.0000 -0.0000  0.3429  0.0000
 -0.0000  0.0149  0.0000  0.0000  0.3390
 
spin component  2
 
  0.2600  0.0000 -0.0000 -0.0306  0.0000
  0.0000  0.3074 -0.0000  0.0000 -0.0306
 -0.0000 -0.0000  0.1954  0.0000  0.0000
 -0.0306  0.0000  0.0000  0.3074 -0.0000
  0.0000 -0.0306  0.0000 -0.0000  0.2600
 
 occupancies and eigenvectors
 
  o =  0.1954  v =  0.0000  0.0000  0.0000  0.0000  0.0000 -0.0000  0.0000 -1.0000 -0.0000  0.0000      0.0000  0.0000  0.0000  0.0000  0.0000  0.0000  0.0000  0.0000  0.0000  0.0000
  o =  0.2450  v =  0.0000  0.0000  0.0000  0.0000  0.0000 -0.6547  0.3016  0.0000 -0.3216  0.6140      0.0000  0.0000  0.0000  0.0000  0.0000  0.0000  0.0000  0.0000  0.0000  0.0000
  o =  0.2450  v =  0.0000  0.0000  0.0000  0.0000  0.0000  0.6140  0.3216 -0.0000  0.3016  0.6547      0.0000  0.0000  0.0000  0.0000  0.0000  0.0000  0.0000  0.0000  0.0000  0.0000
  o =  0.3224  v =  0.0000  0.0000  0.0000  0.0000  0.0000 -0.3216 -0.6140  0.0000  0.6547  0.3016      0.0000  0.0000  0.0000  0.0000  0.0000  0.0000  0.0000  0.0000  0.0000  0.0000
  o =  0.3224  v =  0.0000  0.0000  0.0000  0.0000  0.0000  0.3016 -0.6547 -0.0000 -0.6140  0.3216      0.0000  0.0000  0.0000  0.0000  0.0000  0.0000  0.0000  0.0000  0.0000  0.0000
  o =  0.3259  v = -0.5483 -0.4512 -0.0000  0.4811  0.5142  0.0000  0.0000  0.0000  0.0000  0.0000      0.0000  0.0000  0.0000  0.0000  0.0000  0.0000  0.0000  0.0000  0.0000  0.0000
  o =  0.3259  v = -0.5142  0.4811 -0.0000  0.4512 -0.5483  0.0000  0.0000  0.0000  0.0000  0.0000      0.0000  0.0000  0.0000  0.0000  0.0000  0.0000  0.0000  0.0000  0.0000  0.0000
  o =  0.3560  v = -0.4812  0.5141 -0.0000 -0.5483  0.4511  0.0000  0.0000  0.0000  0.0000  0.0000      0.0000  0.0000  0.0000  0.0000  0.0000  0.0000  0.0000  0.0000  0.0000  0.0000
  o =  0.3560  v = -0.4511 -0.5483 -0.0000 -0.5141 -0.4812  0.0000  0.0000  0.0000  0.0000  0.0000      0.0000  0.0000  0.0000  0.0000  0.0000  0.0000  0.0000  0.0000  0.0000  0.0000
  o =  0.3997  v = -0.0000  0.0000  1.0000 -0.0000  0.0000  0.0000  0.0000  0.0000  0.0000  0.0000      0.0000  0.0000  0.0000  0.0000  0.0000  0.0000  0.0000  0.0000  0.0000  0.0000
     EDDAV:  cpu time   25.2282: real time   25.3395
 BZINTS: Fermi energy: -0.807676; 46.000000 electrons
         Band energy:-700.412677;  BLOECHL correction: -0.008115
       DOS:  cpu time    0.0270: real time    0.0285
    CHARGE:  cpu time    0.8699: real time    0.8713
    MIXING:  cpu time    0.0090: real time    0.0092
    --------------------------------------------
      LOOP:  cpu time   26.4010: real time   26.5175

 eigenvalue-minimisations  :  9872
 total energy-change (2. order) : 0.3596699E+01  (-0.1171756E+01)
 number of electron      46.0000022 magnetization       3.3896018
 augmentation part        4.9837003 magnetization       2.6461789

 DIPCOR: dipole corrections for dipol
 direction  3 min pos   275,
 dipolmoment           0.000000      0.000000      0.002217 electrons x Angstroem
 Tr[quadrupol]       -48.752092

 energy correction for charged system         0.000000 eV
 dipol+quadrupol energy correction           -0.000002 eV
 added-field ion interaction         -0.043615 eV  (added to PSCEN)


 Broyden mixing:
  rms(total) = 0.11247E+01    rms(broyden)= 0.11247E+01
  rms(prec ) = 0.11689E+01
  weight for this iteration     100.00

 eigenvalues of (default mixing * dielectric matrix)
  average eigenvalue GAMMA=   0.8513
  1.5631  0.3604  0.6302

 Free energy of the ion-electron system (eV)
  ---------------------------------------------------
  alpha Z        PSCENC =        63.22659598
  Ewald energy   TEWEN  =     17390.22404797
  -Hartree energ DENC   =    -20702.73575802
  -exchange      EXHF   =         0.00000000
  -V(xc)+E(xc)   XCENC  =       105.71553041
  PAW double counting   =      4742.00983954    -4686.21869171
  entropy T*S    EENTRO =         0.00000000
  eigenvalues    EBANDS =      -700.41267735
  atomic energy  EATOM  =      3750.51368352
  Solvation  Ediel_sol  =         0.00000000
  ---------------------------------------------------
  free energy    TOTEN  =       -37.67742967 eV

  energy without entropy =      -37.67742967  energy(sigma->0) =      -37.67742967


--------------------------------------------------------------------------------------------------------




--------------------------------------- Iteration      1(   9)  ---------------------------------------


    POTLOK:  cpu time    0.2570: real time    0.2592
    SETDIJ:  cpu time    0.0110: real time    0.0106
atom =   1  type =  1  l = 2
 
 onsite density matrix
 
spin component  1
 
  0.3294 -0.0000 -0.0000  0.0201  0.0000
 -0.0000  0.3599  0.0000  0.0000  0.0201
 -0.0000  0.0000  0.3958 -0.0000  0.0000
  0.0201  0.0000 -0.0000  0.3599  0.0000
  0.0000  0.0201  0.0000  0.0000  0.3294
 
spin component  2
 
  0.2368  0.0000 -0.0000 -0.0485  0.0000
  0.0000  0.2891 -0.0000  0.0000 -0.0485
 -0.0000 -0.0000  0.1713  0.0000  0.0000
 -0.0485  0.0000  0.0000  0.2891 -0.0000
  0.0000 -0.0485  0.0000 -0.0000  0.2368
 
 occupancies and eigenvectors
 
  o =  0.1713  v =  0.0000  0.0000  0.0000  0.0000  0.0000 -0.0000  0.0000 -1.0000 -0.0000  0.0000      0.0000  0.0000  0.0000  0.0000  0.0000  0.0000  0.0000  0.0000  0.0000  0.0000
  o =  0.2079  v =  0.0000  0.0000  0.0000  0.0000  0.0000 -0.6263  0.3506  0.0000 -0.3739  0.5874      0.0000  0.0000  0.0000  0.0000  0.0000  0.0000  0.0000  0.0000  0.0000  0.0000
  o =  0.2079  v =  0.0000  0.0000  0.0000  0.0000  0.0000  0.5874  0.3739 -0.0000  0.3506  0.6263      0.0000  0.0000  0.0000  0.0000  0.0000  0.0000  0.0000  0.0000  0.0000  0.0000
  o =  0.3180  v =  0.0000  0.0000  0.0000  0.0000  0.0000 -0.3739 -0.5873  0.0000  0.6263  0.3506      0.0000  0.0000  0.0000  0.0000  0.0000  0.0000  0.0000  0.0000  0.0000  0.0000
  o =  0.3180  v =  0.0000  0.0000  0.0000  0.0000  0.0000  0.3506 -0.6263 -0.0000 -0.5873  0.3739      0.0000  0.0000  0.0000  0.0000  0.0000  0.0000  0.0000  0.0000  0.0000  0.0000
  o =  0.3194  v = -0.6533 -0.3043 -0.0000  0.3244  0.6127  0.0000  0.0000  0.0000  0.0000  0.0000      0.0000  0.0000  0.0000  0.0000  0.0000  0.0000  0.0000  0.0000  0.0000  0.0000
  o =  0.3194  v = -0.6127  0.3244 -0.0000  0.3043 -0.6533  0.0000  0.0000  0.0000  0.0000  0.0000      0.0000  0.0000  0.0000  0.0000  0.0000  0.0000  0.0000  0.0000  0.0000  0.0000
  o =  0.3698  v = -0.3245  0.6126 -0.0000 -0.6533  0.3043  0.0000  0.0000  0.0000  0.0000  0.0000      0.0000  0.0000  0.0000  0.0000  0.0000  0.0000  0.0000  0.0000  0.0000  0.0000
  o =  0.3698  v = -0.3043 -0.6533 -0.0000 -0.6126 -0.3245  0.0000  0.0000  0.0000  0.0000  0.0000      0.0000  0.0000  0.0000  0.0000  0.0000  0.0000  0.0000  0.0000  0.0000  0.0000
  o =  0.3958  v = -0.0000  0.0000  1.0000 -0.0000  0.0000  0.0000  0.0000  0.0000  0.0000  0.0000      0.0000  0.0000  0.0000  0.0000  0.0000  0.0000  0.0000  0.0000  0.0000  0.0000
atom =   2  type =  1  l = 2
 
 onsite density matrix
 
spin component  1
 
  0.3294 -0.0000 -0.0000  0.0201  0.0000
 -0.0000  0.3599  0.0000  0.0000  0.0201
 -0.0000  0.0000  0.3958 -0.0000  0.0000
  0.0201  0.0000 -0.0000  0.3599  0.0000
  0.0000  0.0201  0.0000  0.0000  0.3294
 
spin component  2
 
  0.2368  0.0000 -0.0000 -0.0485 -0.0000
  0.0000  0.2891 -0.0000  0.0000 -0.0485
 -0.0000 -0.0000  0.1713  0.0000  0.0000
 -0.0485  0.0000  0.0000  0.2891 -0.0000
 -0.0000 -0.0485  0.0000 -0.0000  0.2368
 
 occupancies and eigenvectors
 
[...]
      1     -39.6012      1.00000
      2     -39.6012      1.00000
      3     -39.5718      1.00000
      4     -39.5718      1.00000
      5     -39.3390      1.00000
      6     -39.3390      1.00000
      7     -13.3021      1.00000
      8     -13.2594      1.00000
      9     -13.2341      1.00000
     10     -13.2289      1.00000
     11      -6.2000      1.00000
     12      -6.1949      1.00000
     13      -5.9479      1.00000
     14      -5.8637      1.00000
     15      -5.3189      1.00000
     16      -5.2629      1.00000
     17      -4.5216      1.00000
     18      -4.3842      1.00000
     19      -4.0887      1.00000
     20      -3.9042      1.00000
     21      -3.8602      1.00000
     22      -3.7859      1.00000
     23       0.0814      0.00000
     24       0.2018      0.00000
     25       0.2870      0.00000
     26       0.4337      0.00000
     27       0.6160      0.00000
     28       0.6532      0.00000
     29       1.4410      0.00000
     30       1.6646      0.00000
     31       2.0620      0.00000
     32       2.3291      0.00000

 k-point    64 :       0.3600    0.2800    0.0000
  band No.  band energies     occupation 
      1     -39.5995      1.00000
      2     -39.5995      1.00000
      3     -39.5752      1.00000
      4     -39.5752      1.00000
      5     -39.3388      1.00000
      6     -39.3387      1.00000
      7     -13.2736      1.00000
      8     -13.2468      1.00000
      9     -13.2125      1.00000
     10     -13.2084      1.00000
     11      -6.1975      1.00000
     12      -6.1885      1.00000
     13      -5.9184      1.00000
     14      -5.8394      1.00000
     15      -5.4279      1.00000
     16      -5.3704      1.00000
     17      -4.5360      1.00000
     18      -4.3822      1.00000
     19      -4.0130      1.00000
     20      -3.9836      1.00000
     21      -3.8941      1.00000
     22      -3.7932      1.00000
     23       0.0743      0.00000
     24       0.2050      0.00000
     25       0.4108      0.00000
     26       0.5075      0.00000
     27       0.5415      0.00000
     28       0.5743      0.00000
     29       1.5168      0.00000
     30       1.7470      0.00000
     31       1.9542      0.00000
     32       2.2532      0.00000

 k-point    65 :       0.3200    0.3200    0.0000
  band No.  band energies     occupation 
      1     -39.5937      1.00000
      2     -39.5937      1.00000
      3     -39.5822      1.00000
      4     -39.5822      1.00000
      5     -39.3386      1.00000
      6     -39.3385      1.00000
      7     -13.2506      1.00000
      8     -13.2328      1.00000
      9     -13.2032      1.00000
     10     -13.2031      1.00000
     11      -6.0072      1.00000
     12      -6.0059      1.00000
     13      -5.9287      1.00000
     14      -5.8637      1.00000
     15      -5.6555      1.00000
     16      -5.5860      1.00000
     17      -4.5542      1.00000
     18      -4.3704      1.00000
     19      -4.0272      1.00000
     20      -3.9727      1.00000
     21      -3.8803      1.00000
     22      -3.8736      1.00000
     23       0.2696      0.00000
     24       0.2796      0.00000
     25       0.3440      0.00000
     26       0.4457      0.00000
     27       0.4694      0.00000
     28       0.5474      0.00000
     29       1.5900      0.00000
     30       1.8316      0.00000
     31       1.8686      0.00000
     32       2.1281      0.00000


--------------------------------------------------------------------------------------------------------


 soft charge-density along one line, spin component           1
         0         1         2         3         4         5         6         7         8         9
 total charge-density along one line
 
 soft charge-density along one line, spin component           2
         0         1         2         3         4         5         6         7         8         9
 total charge-density along one line
 
 pseudopotential strength for first ion, spin component:           1
-43.339   0.000   0.000  11.267  -0.000  -0.000   0.000   0.001
  0.000 -43.265  -0.000  -0.000  11.220   0.000   0.000  -0.000
  0.000  -0.000 -43.339  -0.000   0.000  11.267  -0.000   0.000
 11.267  -0.000  -0.000   3.562   0.000   0.000  -0.000  -0.000
 -0.000  11.220   0.000   0.000   3.580  -0.000  -0.000   0.000
 -0.000   0.000  11.267   0.000  -0.000   3.562   0.000  -0.000
  0.000   0.000  -0.000  -0.000  -0.000   0.000  -9.118  -0.000
  0.001  -0.000   0.000  -0.000   0.000  -0.000  -0.000  -9.115
  0.000   0.001  -0.000  -0.000  -0.001   0.000  -0.000  -0.000
  0.000   0.000   0.001  -0.000  -0.000  -0.000  -0.064  -0.000
 -0.000   0.000   0.000   0.000  -0.000  -0.000  -0.000  -0.064
  0.000   0.000  -0.000  -0.000  -0.000   0.000  -9.986  -0.000
  0.001  -0.000   0.000  -0.000   0.000  -0.000  -0.000  -9.979
  0.000   0.001  -0.000  -0.000  -0.001   0.000  -0.000  -0.000
  0.000   0.000   0.001  -0.000  -0.000  -0.000  -0.073  -0.000
 -0.000   0.000   0.000   0.000  -0.000  -0.000  -0.000  -0.073
  0.000  -0.000  -0.000  -0.000   0.000   0.000  -0.000  -0.000
  0.000  -0.001  -0.000  -0.000   0.001   0.000  -0.000  -0.000
 pseudopotential strength for first ion, spin component:           2
-42.955   0.000   0.000  11.037  -0.000  -0.000   0.000   0.001
  0.000 -42.859  -0.000  -0.000  10.973   0.000   0.000  -0.000
  0.000  -0.000 -42.955  -0.000   0.000  11.037  -0.000   0.000
 11.037  -0.000  -0.000   3.672   0.000   0.000  -0.000  -0.000
 -0.000  10.973   0.000   0.000   3.696  -0.000  -0.000   0.000
 -0.000   0.000  11.037   0.000  -0.000   3.672   0.000  -0.000
  0.000   0.000  -0.000  -0.000  -0.000   0.000  -8.643  -0.000
  0.001  -0.000   0.000  -0.000   0.000  -0.000  -0.000  -8.678
  0.000   0.001  -0.000  -0.000  -0.001   0.000  -0.000  -0.000
  0.000   0.000   0.001  -0.000  -0.000  -0.000   0.108  -0.000
 -0.000   0.000   0.000   0.000  -0.000  -0.000  -0.000   0.108
  0.000   0.000  -0.000  -0.000  -0.000   0.000  -9.445  -0.000
  0.001  -0.000   0.000  -0.000   0.000  -0.000  -0.000  -9.481
  0.000   0.001  -0.000  -0.000  -0.001   0.000  -0.000  -0.000
  0.000   0.000   0.001  -0.000  -0.000  -0.000   0.121  -0.000
 -0.000   0.000   0.000   0.000  -0.000  -0.000  -0.000   0.121
  0.000  -0.000  -0.000  -0.000   0.000   0.000  -0.000  -0.000
  0.000  -0.001  -0.000  -0.000   0.001   0.000  -0.000  -0.000
 total augmentation occupancy for first ion, spin component:           1
  1.986   0.000   0.000  -0.055   0.000  -0.000   0.000   0.001  -0.000   0.000  -0.000  -0.000  -0.001   0.000  -0.000   0.000
  0.000   1.986   0.000   0.000  -0.057   0.000  -0.000   0.000   0.001   0.000   0.000   0.000   0.000  -0.001  -0.000  -0.000
  0.000   0.000   1.986  -0.000   0.000  -0.055  -0.000   0.000   0.000   0.001  -0.000   0.000  -0.000  -0.000  -0.001   0.000
 -0.055  -0.000  -0.000   0.138   0.000   0.000  -0.000  -0.000   0.000  -0.000   0.000   0.000  -0.001  -0.000  -0.000  -0.000
  0.000  -0.057   0.000  -0.000   0.162  -0.000  -0.000   0.000   0.001  -0.000   0.000   0.000   0.000  -0.002  -0.000  -0.000
 -0.000   0.000  -0.055   0.000  -0.000   0.138   0.000  -0.000  -0.000  -0.000   0.000  -0.000  -0.000   0.000  -0.001  -0.000
  0.000  -0.000  -0.000  -0.000  -0.000   0.000   3.800   0.000  -0.000  -2.106   0.000  -2.249  -0.000   0.000   1.423  -0.000
  0.001   0.000   0.000  -0.000   0.000  -0.000   0.000   5.693  -0.000   0.000  -2.106  -0.000  -3.437   0.000  -0.000   1.421
 -0.000   0.001   0.000   0.000   0.001  -0.000  -0.000  -0.000   2.555   0.000   0.000   0.000   0.000  -1.433  -0.000  -0.000
  0.000   0.000   0.001  -0.000  -0.000  -0.000  -2.106   0.000   0.000   5.693  -0.000   1.421  -0.000  -0.000  -3.437   0.000
 -0.000   0.000  -0.000   0.000   0.000   0.000   0.000  -2.106   0.000  -0.000   3.800  -0.000   1.423  -0.000   0.000  -2.249
 -0.000   0.000   0.000   0.000   0.000  -0.000  -2.249  -0.000   0.000   1.421  -0.000   1.484   0.000  -0.000  -0.884   0.000
 -0.001   0.000  -0.000  -0.001   0.000  -0.000  -0.000  -3.437   0.000  -0.000   1.423   0.000   2.253  -0.000   0.000  -0.884
  0.000  -0.001  -0.000  -0.000  -0.002   0.000   0.000   0.000  -1.433  -0.000  -0.000  -0.000  -0.000   0.997   0.000   0.000
 -0.000  -0.000  -0.001  -0.000  -0.000  -0.001   1.423  -0.000  -0.000  -3.437   0.000  -0.884   0.000   0.000   2.253  -0.000
  0.000  -0.000   0.000  -0.000  -0.000  -0.000   0.000   1.421  -0.000   0.000  -2.249   0.000  -0.884   0.000  -0.000   1.484
  0.000   0.000  -0.000  -0.000  -0.001   0.000  -0.000  -0.000   0.171   0.000   0.000   0.000   0.000  -0.012   0.000  -0.000
 -0.000   0.000  -0.000   0.000   0.000   0.000   0.000   0.000  -0.012   0.000  -0.000  -0.000   0.000   0.005   0.000   0.000
 total augmentation occupancy for first ion, spin component:           2
 -0.000   0.000  -0.000  -0.001  -0.000  -0.000  -0.000  -0.000   0.000  -0.000   0.000   0.000   0.000  -0.000   0.000  -0.000
  0.000  -0.000  -0.000   0.000   0.000   0.000  -0.000  -0.000   0.000  -0.000   0.000   0.000   0.000  -0.000   0.000  -0.000
 -0.000  -0.000  -0.000  -0.000   0.000  -0.001   0.000  -0.000  -0.000  -0.000   0.000  -0.000   0.000   0.000   0.000  -0.000
 -0.001   0.000  -0.000   0.001   0.000   0.000  -0.000   0.000   0.000   0.000   0.000   0.000  -0.000  -0.000  -0.000  -0.000
 -0.000   0.000  -0.000   0.000   0.005  -0.000  -0.000   0.000   0.000   0.000   0.000   0.000  -0.000  -0.000   0.000  -0.000
 -0.000  -0.000  -0.001   0.000   0.000   0.001   0.000   0.000  -0.000   0.000   0.000  -0.000  -0.000   0.000  -0.000  -0.000
 -0.000  -0.000   0.000  -0.000  -0.000   0.000  -0.097  -0.000   0.000   0.101   0.000   0.140   0.000  -0.000  -0.050  -0.000
 -0.000  -0.000  -0.000   0.000   0.000   0.000  -0.000  -0.150   0.000  -0.000   0.101   0.000   0.197  -0.000   0.000  -0.030
  0.000   0.000  -0.000   0.000   0.000  -0.000   0.000   0.000   0.050  -0.000  -0.000  -0.000  -0.000   0.091   0.000   0.000
 -0.000   0.000  -0.000   0.000   0.000   0.000   0.101  -0.000  -0.000  -0.150   0.000  -0.030   0.000   0.000   0.197  -0.000
  0.000   0.000   0.000   0.000   0.000   0.000   0.000   0.101  -0.000   0.000  -0.097   0.000  -0.050   0.000  -0.000   0.140
  0.000   0.000  -0.000   0.000   0.000  -0.000   0.140   0.000  -0.000  -0.030  -0.000  -0.039  -0.000   0.000   0.084   0.000
  0.000   0.000   0.000  -0.000  -0.000  -0.000   0.000   0.197  -0.000   0.000  -0.050  -0.000  -0.105   0.000  -0.000   0.084
 -0.000  -0.000   0.000  -0.000  -0.000   0.000  -0.000  -0.000   0.091   0.000   0.000   0.000   0.000   0.029  -0.000  -0.000
  0.000  -0.000   0.000  -0.000   0.000  -0.000  -0.050   0.000   0.000   0.197  -0.000   0.084  -0.000  -0.000  -0.105   0.000
 -0.000  -0.000  -0.000  -0.000  -0.000  -0.000  -0.000  -0.030   0.000  -0.000   0.140   0.000   0.084  -0.000   0.000  -0.039
 -0.000  -0.000  -0.000   0.000   0.000   0.000  -0.000   0.000   0.033  -0.000   0.000  -0.000   0.000   0.041  -0.000   0.000
  0.000   0.000   0.000   0.000  -0.000  -0.000  -0.000   0.000   0.001  -0.000   0.000   0.000  -0.000  -0.002   0.000  -0.000


------------------------ aborting loop because EDIFF is reached ----------------------------------------


 


 total charge     
 
# of ion       s       p       d       tot
------------------------------------------
    1        0.278   6.278   2.970   9.525
    2        0.278   6.278   2.970   9.525
    3        1.366   2.338   0.000   3.705
    4        1.367   2.336   0.000   3.704
    5        1.367   2.336   0.000   3.704
    6        1.366   2.338   0.000   3.705
--------------------------------------------------
tot          6.024  21.904   5.939  33.867
 


 magnetization (x)
 
# of ion       s       p       d       tot
------------------------------------------
    1        0.009   0.006   0.746   0.761
    2        0.009   0.006   0.746   0.761
    3       -0.002  -0.058   0.000  -0.060
    4       -0.001  -0.057   0.000  -0.058
    5       -0.001  -0.057   0.000  -0.058
    6       -0.002  -0.058   0.000  -0.060
--------------------------------------------------
tot          0.012  -0.219   1.492   1.285
 
    CHARGE:  cpu time    0.8569: real time    0.8587
    FORLOC:  cpu time    0.0060: real time    0.0050
    FORNL :  cpu time    1.2538: real time    1.2573
    STRESS:  cpu time    3.2605: real time    3.2713
    FORCOR:  cpu time    0.2390: real time    0.2390
    FORHAR:  cpu time    0.0320: real time    0.0318
    MIXING:  cpu time    0.0190: real time    0.0193
    OFIELD:  cpu time    0.0000: real time    0.0000

  DFT-D2 method for vdW energy calculation
  -------------------------------------------------------------------

  Parameters of vdW forcefield:
         C6(Jnm^6/mol)     R0(A)
   -----------------------------
   V       10.800          1.562
   S        5.570          1.683

  IVDW =   1
  VDW_RADIUS =    50.000 A
  VDW_S6 =     0.750
  VDW_SR =     1.000
  VDW_D =    20.000
  LVDW_EWALD = F

  Number of pair interactions contributing to vdW energy:   43293
  Edisp (eV):   -1.08456
    FORVDW:  cpu time    0.0440: real time    0.0478

  FORCE on cell =-STRESS in cart. coord.  units (eV):
  Direction    XX          YY          ZZ          XY          YZ          ZX
  --------------------------------------------------------------------------------------
  Alpha Z    63.27021    63.27021    63.27021
  Ewald   19475.18034 19475.18037-21560.13832    -0.00002     0.00001     0.00002
  Hartree 20246.59931 20246.59930-19791.68377     0.00000    -0.00000    -0.00000
  E(xc)    -204.63847  -204.63847  -205.27178     0.00000    -0.00000     0.00000
  Local  -40343.28679-40343.28688 40713.38779    -0.00005    -0.00001    -0.00001
  n-local   148.36175   148.11597   154.71828    -0.80333    -0.52296    -1.69364
  augment     0.89621     0.89627     2.08632     0.00005    -0.00000    -0.00000
  Kinetic   610.10495   620.08335   624.22831    -7.02978     4.24482    10.30703
  Fock        0.00000     0.00000     0.00000     0.00000     0.00000     0.00000
  vdW        -0.30391    -0.30391    -0.56154     0.00000    -0.00000    -0.00000
  -------------------------------------------------------------------------------------
  Total       1.04991     1.04991     0.03550     0.00000    -0.00000     0.00000
  in kB       6.59107     6.59107     0.22287     0.00000    -0.00000     0.00000
  external pressure =        4.47 kB  Pullay stress =        0.00 kB


 VOLUME and BASIS-vectors are now :
 -----------------------------------------------------------------------------
  energy-cutoff  :      500.00
  volume of cell :      255.22
      direct lattice vectors                 reciprocal lattice vectors
     3.188283682  0.000000000  0.000000000     0.313648376  0.181084974  0.000000000
    -1.594141841  2.761134663  0.000000000     0.000000000  0.362169949  0.000000000
     0.000000000  0.000000000 28.990970612     0.000000000  0.000000000  0.034493498

  length of vectors
     3.188283682  3.188283682 28.990970612     0.362169949  0.362169949  0.034493498


 FORCES acting on ions
    electron-ion (+dipol)            ewald-force                    non-local-force                 convergence-correction
 -----------------------------------------------------------------------------------------------
   0.838E-06 -.142E-05 0.151E+04   0.616E-05 -.107E-04 -.151E+04   -.434E-18 0.217E-18 0.131E+00   0.583E-09 -.346E-09 0.106E-03
   0.824E-06 -.148E-05 -.151E+04   0.616E-05 -.107E-04 0.151E+04   0.325E-18 -.108E-18 -.131E+00   -.565E-09 0.316E-09 -.106E-03
   -.487E-04 0.282E-04 0.152E+04   -.642E-05 0.353E-05 -.152E+04   -.520E-17 -.694E-17 0.298E+01   0.806E-10 -.467E-10 -.158E-03
   0.731E-06 0.546E-04 0.130E+03   0.359E-06 0.720E-05 -.128E+03   -.173E-16 0.139E-16 -.284E+01   0.123E-10 0.435E-11 0.210E-03
   -.485E-04 0.281E-04 -.130E+03   -.652E-05 0.348E-05 0.128E+03   0.139E-16 -.208E-16 0.284E+01   -.219E-10 0.124E-10 -.210E-03
   0.722E-06 0.548E-04 -.152E+04   0.258E-06 0.713E-05 0.152E+04   0.156E-16 0.139E-16 -.298E+01   -.102E-09 0.832E-10 0.158E-03
 -----------------------------------------------------------------------------------------------
   -.941E-04 0.163E-03 -.712E-03   -.396E-13 -.179E-15 0.227E-12   0.683E-17 0.108E-18 -.444E-15   -.131E-10 0.228E-10 0.223E-07
 
 
 POSITION                                       TOTAL-FORCE (eV/Angst)
 -----------------------------------------------------------------------------------
      0.00000      0.00000      1.46744        -0.000000      0.000000      0.081217
      0.00000      0.00000      7.52354         0.000000     -0.000000     -0.081217
      1.59414      0.92038      0.00000        -0.000000      0.000000     -0.075449
     -0.00000      1.84076      2.93487        -0.000000      0.000000      0.026070
      1.59414      0.92038      6.05610         0.000000     -0.000000     -0.026070
     -0.00000      1.84076      8.99097         0.000000     -0.000000      0.075449
 -----------------------------------------------------------------------------------
    total drift:                               -0.000094      0.000163     -0.000712


--------------------------------------------------------------------------------------------------------



  FREE ENERGIE OF THE ION-ELECTRON SYSTEM (eV)
  ---------------------------------------------------
  free  energy   TOTEN  =       -38.57960111 eV

  energy  without entropy=      -38.57960111  energy(sigma->0) =      -38.57960111
 


--------------------------------------------------------------------------------------------------------


    POTLOK:  cpu time    0.2710: real time    0.2712


--------------------------------------------------------------------------------------------------------


     LOOP+:  cpu time 1049.8084: real time 1058.1430
    4ORBIT:  cpu time    0.0000: real time    0.0000
 


 total charge     
 
# of ion       s       p       d       tot
------------------------------------------
    1        0.278   6.278   2.970   9.525
    2        0.278   6.278   2.970   9.525
    3        1.366   2.338   0.000   3.705
    4        1.367   2.336   0.000   3.704
    5        1.367   2.336   0.000   3.704
    6        1.366   2.338   0.000   3.705
--------------------------------------------------
tot          6.024  21.904   5.939  33.867
 


 magnetization (x)
 
# of ion       s       p       d       tot
------------------------------------------
    1        0.009   0.006   0.746   0.761
    2        0.009   0.006   0.746   0.761
    3       -0.002  -0.058   0.000  -0.060
    4       -0.001  -0.057   0.000  -0.058
    5       -0.001  -0.057   0.000  -0.058
    6       -0.002  -0.058   0.000  -0.060
--------------------------------------------------
tot          0.012  -0.219   1.492   1.285
 
 BZINTS: Fermi energy: -1.029498; 46.000000 electrons
         Band energy:-697.903246;  BLOECHL correction: -0.007310

 total amount of memory used by VASP MPI-rank0   121676. kBytes
=======================================================================

   base      :      30000. kBytes
   nonl-proj :      40943. kBytes
   fftplans  :       4013. kBytes
   grid      :       9984. kBytes
   one-center:         62. kBytes
   wavefun   :      36674. kBytes
 
  
  
 General timing and accounting informations for this job:
 ========================================================
  
                  Total CPU time used (sec):     1056.700
                            User time (sec):     1053.278
                          System time (sec):        3.422
                         Elapsed time (sec):     1065.446
  
                   Maximum memory used (kb):      154212.
                   Average memory used (kb):           0.
  
                          Minor page faults:        78957
                          Major page faults:            0
                 Voluntary context switches:         1035
