 vasp.5.4.4.18Apr17-6-g9f103f2a35 (build May 20 2019 14:42:51) complex          
  
 executed on             LinuxIFC date 2021.06.28  16:45:55
 running on   12 total cores
 distrk:  each k-point on   12 cores,    1 groups
 distr:  one band on NCORES_PER_BAND=   3 cores,    4 groups


--------------------------------------------------------------------------------------------------------


 INCAR:
 POTCAR:    PAW_PBE V_pv 07Sep2000                
 POTCAR:    PAW_PBE S 06Sep2000                   
 POTCAR:    PAW_PBE V_pv 07Sep2000                
   VRHFIN =V: p6 d4 s1                                                          
   LEXCH  = PE                                                                  
   EATOM  =  1321.6206 eV,   97.1364 Ry                                         
                                                                                
   TITEL  = PAW_PBE V_pv 07Sep2000                                              
   LULTRA =        F    use ultrasoft PP ?                                      
   IUNSCR =        1    unscreen: 0-lin 1-nonlin 2-no                           
   RPACOR =    1.700    partial core radius                                     
   POMASS =   50.941; ZVAL   =   11.000    mass and valenz                      
   RCORE  =    2.300    outmost cutoff radius                                   
   RWIGS  =    2.300; RWIGS  =    1.217    wigner-seitz radius (au A)           
   ENMAX  =  263.673; ENMIN  =  197.755 eV                                      
   RCLOC  =    1.779    cutoff for local pot                                    
   LCOR   =        T    correct aug charges                                     
   LPAW   =        T    paw PP                                                  
   EAUG   =  598.473                                                            
   DEXC   =    0.000                                                            
   RMAX   =    2.359    core radius for proj-oper                               
   RAUG   =    1.300    factor for augmentation sphere                          
   RDEP   =    2.430    radius for radial grids                                 
   RDEPT  =    1.700    core radius for aug-charge                              
                                                                                
   Atomic configuration                                                         
    8 entries                                                                   
     n  l   j            E        occ.                                          
     1  0  0.50     -5360.7193   2.0000                                         
     2  0  0.50      -598.4546   2.0000                                         
     2  1  1.50      -499.0155   6.0000                                         
     3  0  0.50       -66.5711   2.0000                                         
     3  1  1.50       -40.5282   6.0000                                         
     3  2  2.50        -2.4291   4.0000                                         
     4  0  0.50        -3.8743   1.0000                                         
     4  3  2.50        -1.3606   0.0000                                         
   Description                                                                  
     l       E           TYP  RCUT    TYP  RCUT                                 
     1    -40.5282431     23  2.000                                             
     1      5.4423304     23  2.000                                             
     2     -2.4290905     23  2.300                                             
     2     -1.0472488     23  2.300                                             
     0     -3.8742754     23  2.300                                             
     0     27.2116520     23  2.300                                             
  local pseudopotential read in
  partial core-charges read in
  partial kinetic energy density read in
  atomic valenz-charges read in
  non local Contribution for L=           1  read in
    real space projection operators read in
  non local Contribution for L=           1  read in
    real space projection operators read in
  non local Contribution for L=           2  read in
    real space projection operators read in
  non local Contribution for L=           2  read in
    real space projection operators read in
  non local Contribution for L=           0  read in
    real space projection operators read in
  non local Contribution for L=           0  read in
    real space projection operators read in
    PAW grid and wavefunctions read in
 
   number of l-projection  operators is LMAX  =           6
   number of lm-projection operators is LMMAX =          18
 
 POTCAR:    PAW_PBE S 06Sep2000                   
   VRHFIN =S : s2p4                                                             
   LEXCH  = PE                                                                  
   EATOM  =   276.8230 eV,   20.3459 Ry                                         
                                                                                
   TITEL  = PAW_PBE S 06Sep2000                                                 
   LULTRA =        F    use ultrasoft PP ?                                      
   IUNSCR =        1    unscreen: 0-lin 1-nonlin 2-no                           
   RPACOR =    1.500    partial core radius                                     
   POMASS =   32.066; ZVAL   =    6.000    mass and valenz                      
   RCORE  =    1.900    outmost cutoff radius                                   
   RWIGS  =    2.200; RWIGS  =    1.164    wigner-seitz radius (au A)           
   ENMAX  =  258.689; ENMIN  =  194.016 eV                                      
   ICORE  =        2    local potential                                         
   LCOR   =        T    correct aug charges                                     
   LPAW   =        T    paw PP                                                  
   EAUG   =  335.092                                                            
   DEXC   =    0.000                                                            
   RMAX   =    1.942    core radius for proj-oper                               
   RAUG   =    1.300    factor for augmentation sphere                          
   RDEP   =    1.954    radius for radial grids                                 
   RDEPT  =    1.744    core radius for aug-charge                              
                                                                                
   Atomic configuration                                                         
    6 entries                                                                   
     n  l   j            E        occ.                                          
     1  0  0.50     -2405.8406   2.0000                                         
     2  0  0.50      -211.7007   2.0000                                         
     2  1  1.50      -156.4958   6.0000                                         
     3  0  0.50       -17.2562   2.0000                                         
     3  1  0.50        -7.0085   4.0000                                         
     3  2  1.50        -6.8029   0.0000                                         
   Description                                                                  
     l       E           TYP  RCUT    TYP  RCUT                                 
     0    -17.2561641     23  1.900                                             
     0    -15.8743224     23  1.900                                             
     1     -7.0085400     23  1.900                                             
     1     -2.7779785     23  1.900                                             
     2     -6.8029130     23  1.900                                             
  local pseudopotential read in
  partial core-charges read in
  partial kinetic energy density read in
  atomic valenz-charges read in
  non local Contribution for L=           0  read in
    real space projection operators read in
  non local Contribution for L=           0  read in
    real space projection operators read in
  non local Contribution for L=           1  read in
    real space projection operators read in
  non local Contribution for L=           1  read in
    real space projection operators read in
    PAW grid and wavefunctions read in
 
   number of l-projection  operators is LMAX  =           4
   number of lm-projection operators is LMMAX =           8
 
  PAW_PBE V_pv 07Sep2000                :
 energy of atom  1       EATOM=-1321.6206
 kinetic energy error for atom=    0.0058 (will be added to EATOM!!)
  PAW_PBE S 06Sep2000                   :
 energy of atom  2       EATOM= -276.8230
 kinetic energy error for atom=    0.0020 (will be added to EATOM!!)
 
 
 POSCAR: Primitive Cell, D = 3.1212              
  positions in direct lattice
  velocities in cartesian coordinates
  No initial velocities read in
 exchange correlation table for  LEXCH =        8
   RHO(1)=    0.500       N(1)  =     2000
   RHO(2)=  100.500       N(2)  =     4000
 


--------------------------------------------------------------------------------------------------------


 ion  position               nearest neighbor table
   1  0.000  0.000  0.051-   3 2.35   4 2.35   4 2.35   3 2.35   3 2.35   4 2.35
   2  0.000  0.000  0.260-   5 2.35   5 2.35   5 2.35   6 2.35   6 2.35   6 2.35
   3  0.667  0.333  0.000-   1 2.35   1 2.35   1 2.35
   4  0.333  0.667  0.101-   1 2.35   1 2.35   1 2.35
   5  0.667  0.333  0.209-   2 2.35   2 2.35   2 2.35
   6  0.333  0.667  0.310-   2 2.35   2 2.35   2 2.35
 
  LATTYP: Found a hexagonal cell.
 ALAT       =     3.1882836819
 C/A-ratio  =     9.0929708595
  
  Lattice vectors:
  
 A1 = (   3.1882836819,   0.0000000000,   0.0000000000)
 A2 = (  -1.5941418409,   2.7611346630,   0.0000000000)
 A3 = (   0.0000000000,   0.0000000000,  28.9909706116)


Analysis of symmetry for initial positions (statically):
=====================================================================
 Subroutine PRICEL returns:
 Original cell was already a primitive cell.
 

 Routine SETGRP: Setting up the symmetry group for a 
 hexagonal supercell.


 Subroutine GETGRP returns: Found 12 space group operations
 (whereof  6 operations were pure point group operations)
 out of a pool of 24 trial point group operations.


The static configuration has the point symmetry C_3v.
 The point group associated with its full space group is D_3d.


Analysis of symmetry for dynamics (positions and initial velocities):
=====================================================================
 Subroutine PRICEL returns:
 Original cell was already a primitive cell.
 

 Routine SETGRP: Setting up the symmetry group for a 
 hexagonal supercell.


 Subroutine GETGRP returns: Found 12 space group operations
 (whereof  6 operations were pure point group operations)
 out of a pool of 24 trial point group operations.


The dynamic configuration has the point symmetry C_3v.
 The point group associated with its full space group is D_3d.


Analysis of structural, dynamic, and magnetic symmetry:
=====================================================================
 Subroutine PRICEL returns:
 Original cell was already a primitive cell.
 

 Routine SETGRP: Setting up the symmetry group for a 
 hexagonal supercell.


 Subroutine GETGRP returns: Found 12 space group operations
 (whereof  6 operations were pure point group operations)
 out of a pool of 24 trial point group operations.


The magnetic configuration has the point symmetry C_3v.
 The point group associated with its full space group is D_3d.


 Subroutine INISYM returns: Found 12 space group operations
 (whereof  6 operations are pure point group operations),
 and found     1 'primitive' translations

 
 
 KPOINTS: !Auto mesh                              

Automatic generation of k-mesh.
Space group operators:
 irot       det(A)        alpha          n_x          n_y          n_z        tau_x        tau_y        tau_z
    1     1.000000     0.000000     1.000000     0.000000     0.000000     0.000000     0.000000     0.000000
    2     1.000000   120.000000     0.000000     0.000000    -1.000000     0.000000     0.000000     0.000000
    3     1.000000   120.000000     0.000000     0.000000     1.000000     0.000000     0.000000     0.000000
    4    -1.000000   180.000000     1.000000    -0.000000     0.000000     0.000000     0.000000     0.000000
    5    -1.000000   180.000000     0.500000    -0.866025     0.000000     0.000000     0.000000     0.000000
    6    -1.000000   180.000000    -0.500000    -0.866025     0.000000     0.000000     0.000000     0.000000
    7    -1.000000     0.000000     1.000000     0.000000     0.000000     0.000000     0.000000     0.310130
    8    -1.000000   120.000000     0.000000     0.000000    -1.000000     0.000000     0.000000     0.310130
    9    -1.000000   120.000000     0.000000     0.000000     1.000000     0.000000     0.000000     0.310130
   10     1.000000   180.000000     1.000000    -0.000000     0.000000     0.000000     0.000000     0.310130
   11     1.000000   180.000000     0.500000    -0.866025     0.000000     0.000000     0.000000     0.310130
   12     1.000000   180.000000    -0.500000    -0.866025     0.000000     0.000000     0.000000     0.310130
 
 Subroutine IBZKPT returns following result:
 ===========================================
 
 Found    120 irreducible k-points:
 
 Following reciprocal coordinates:
            Coordinates               Weight
  0.000000  0.000000  0.000000      1.000000
  0.028571  0.000000  0.000000      6.000000
  0.057143  0.000000  0.000000      6.000000
  0.085714  0.000000  0.000000      6.000000
  0.114286  0.000000  0.000000      6.000000
  0.142857  0.000000  0.000000      6.000000
  0.171429  0.000000  0.000000      6.000000
  0.200000  0.000000  0.000000      6.000000
  0.228571  0.000000  0.000000      6.000000
  0.257143  0.000000  0.000000      6.000000
  0.285714  0.000000  0.000000      6.000000
  0.314286  0.000000  0.000000      6.000000
  0.342857  0.000000  0.000000      6.000000
  0.371429  0.000000  0.000000      6.000000
  0.400000  0.000000  0.000000      6.000000
  0.428571  0.000000  0.000000      6.000000
  0.457143  0.000000  0.000000      6.000000
  0.485714  0.000000  0.000000      6.000000
  0.028571  0.028571  0.000000      6.000000
  0.057143  0.028571  0.000000     12.000000
  0.085714  0.028571  0.000000     12.000000
  0.114286  0.028571  0.000000     12.000000
  0.142857  0.028571  0.000000     12.000000
  0.171429  0.028571  0.000000     12.000000
  0.200000  0.028571  0.000000     12.000000
  0.228571  0.028571  0.000000     12.000000
  0.257143  0.028571  0.000000     12.000000
  0.285714  0.028571  0.000000     12.000000
  0.314286  0.028571  0.000000     12.000000
  0.342857  0.028571  0.000000     12.000000
  0.371429  0.028571  0.000000     12.000000
  0.400000  0.028571  0.000000     12.000000
  0.428571  0.028571  0.000000     12.000000
  0.457143  0.028571  0.000000     12.000000
  0.485714  0.028571  0.000000      6.000000
  0.057143  0.057143  0.000000      6.000000
  0.085714  0.057143  0.000000     12.000000
  0.114286  0.057143  0.000000     12.000000
  0.142857  0.057143  0.000000     12.000000
  0.171429  0.057143  0.000000     12.000000
  0.200000  0.057143  0.000000     12.000000
  0.228571  0.057143  0.000000     12.000000
  0.257143  0.057143  0.000000     12.000000
  0.285714  0.057143  0.000000     12.000000
  0.314286  0.057143  0.000000     12.000000
  0.342857  0.057143  0.000000     12.000000
  0.371429  0.057143  0.000000     12.000000
  0.400000  0.057143  0.000000     12.000000
  0.428571  0.057143  0.000000     12.000000
  0.457143  0.057143  0.000000     12.000000
  0.085714  0.085714  0.000000      6.000000
  0.114286  0.085714  0.000000     12.000000
  0.142857  0.085714  0.000000     12.000000
  0.171429  0.085714  0.000000     12.000000
  0.200000  0.085714  0.000000     12.000000
  0.228571  0.085714  0.000000     12.000000
  0.257143  0.085714  0.000000     12.000000
  0.285714  0.085714  0.000000     12.000000
  0.314286  0.085714  0.000000     12.000000
  0.342857  0.085714  0.000000     12.000000
  0.371429  0.085714  0.000000     12.000000
  0.400000  0.085714  0.000000     12.000000
  0.428571  0.085714  0.000000     12.000000
  0.457143  0.085714  0.000000      6.000000
  0.114286  0.114286  0.000000      6.000000
  0.142857  0.114286  0.000000     12.000000
  0.171429  0.114286  0.000000     12.000000
  0.200000  0.114286  0.000000     12.000000
  0.228571  0.114286  0.000000     12.000000
  0.257143  0.114286  0.000000     12.000000
  0.285714  0.114286  0.000000     12.000000
  0.314286  0.114286  0.000000     12.000000
  0.342857  0.114286  0.000000     12.000000
  0.371429  0.114286  0.000000     12.000000
  0.400000  0.114286  0.000000     12.000000
  0.428571  0.114286  0.000000     12.000000
  0.142857  0.142857  0.000000      6.000000
  0.171429  0.142857  0.000000     12.000000
  0.200000  0.142857  0.000000     12.000000
  0.228571  0.142857  0.000000     12.000000
  0.257143  0.142857  0.000000     12.000000
  0.285714  0.142857  0.000000     12.000000
  0.314286  0.142857  0.000000     12.000000
  0.342857  0.142857  0.000000     12.000000
  0.371429  0.142857  0.000000     12.000000
  0.400000  0.142857  0.000000     12.000000
  0.428571  0.142857  0.000000      6.000000
  0.171429  0.171429  0.000000      6.000000
  0.200000  0.171429  0.000000     12.000000
  0.228571  0.171429  0.000000     12.000000
  0.257143  0.171429  0.000000     12.000000
  0.285714  0.171429  0.000000     12.000000
  0.314286  0.171429  0.000000     12.000000
  0.342857  0.171429  0.000000     12.000000
  0.371429  0.171429  0.000000     12.000000
  0.400000  0.171429  0.000000     12.000000
  0.200000  0.200000  0.000000      6.000000
  0.228571  0.200000  0.000000     12.000000
  0.257143  0.200000  0.000000     12.000000
  0.285714  0.200000  0.000000     12.000000
  0.314286  0.200000  0.000000     12.000000
  0.342857  0.200000  0.000000     12.000000
  0.371429  0.200000  0.000000     12.000000
  0.400000  0.200000  0.000000      6.000000
  0.228571  0.228571  0.000000      6.000000
  0.257143  0.228571  0.000000     12.000000
  0.285714  0.228571  0.000000     12.000000
  0.314286  0.228571  0.000000     12.000000
  0.342857  0.228571  0.000000     12.000000
  0.371429  0.228571  0.000000     12.000000
  0.257143  0.257143  0.000000      6.000000
  0.285714  0.257143  0.000000     12.000000
  0.314286  0.257143  0.000000     12.000000
  0.342857  0.257143  0.000000     12.000000
  0.371429  0.257143  0.000000      6.000000
  0.285714  0.285714  0.000000      6.000000
  0.314286  0.285714  0.000000     12.000000
  0.342857  0.285714  0.000000     12.000000
  0.314286  0.314286  0.000000      6.000000
  0.342857  0.314286  0.000000      6.000000
 
 Following cartesian coordinates:
            Coordinates               Weight
  0.000000  0.000000  0.000000      1.000000
  0.008961  0.005174  0.000000      6.000000
  0.017923  0.010348  0.000000      6.000000
  0.026884  0.015522  0.000000      6.000000
  0.035846  0.020695  0.000000      6.000000
  0.044807  0.025869  0.000000      6.000000
  0.053768  0.031043  0.000000      6.000000
  0.062730  0.036217  0.000000      6.000000
  0.071691  0.041391  0.000000      6.000000
  0.080652  0.046565  0.000000      6.000000
  0.089614  0.051739  0.000000      6.000000
  0.098575  0.056912  0.000000      6.000000
  0.107537  0.062086  0.000000      6.000000
  0.116498  0.067260  0.000000      6.000000
  0.125459  0.072434  0.000000      6.000000
  0.134421  0.077608  0.000000      6.000000
  0.143382  0.082782  0.000000      6.000000
  0.152343  0.087956  0.000000      6.000000
  0.008961  0.015522  0.000000      6.000000
  0.017923  0.020695  0.000000     12.000000
  0.026884  0.025869  0.000000     12.000000
  0.035846  0.031043  0.000000     12.000000
  0.044807  0.036217  0.000000     12.000000
  0.053768  0.041391  0.000000     12.000000
  0.062730  0.046565  0.000000     12.000000
  0.071691  0.051739  0.000000     12.000000
  0.080652  0.056912  0.000000     12.000000
  0.089614  0.062086  0.000000     12.000000
  0.098575  0.067260  0.000000     12.000000
  0.107537  0.072434  0.000000     12.000000
  0.116498  0.077608  0.000000     12.000000
  0.125459  0.082782  0.000000     12.000000
  0.134421  0.087956  0.000000     12.000000
  0.143382  0.093129  0.000000     12.000000
  0.152343  0.098303  0.000000      6.000000
  0.017923  0.031043  0.000000      6.000000
  0.026884  0.036217  0.000000     12.000000
  0.035846  0.041391  0.000000     12.000000
  0.044807  0.046565  0.000000     12.000000
  0.053768  0.051739  0.000000     12.000000
  0.062730  0.056912  0.000000     12.000000
  0.071691  0.062086  0.000000     12.000000
  0.080652  0.067260  0.000000     12.000000
  0.089614  0.072434  0.000000     12.000000
  0.098575  0.077608  0.000000     12.000000
  0.107537  0.082782  0.000000     12.000000
  0.116498  0.087956  0.000000     12.000000
  0.125459  0.093129  0.000000     12.000000
  0.134421  0.098303  0.000000     12.000000
  0.143382  0.103477  0.000000     12.000000
  0.026884  0.046565  0.000000      6.000000
  0.035846  0.051739  0.000000     12.000000
  0.044807  0.056912  0.000000     12.000000
  0.053768  0.062086  0.000000     12.000000
  0.062730  0.067260  0.000000     12.000000
  0.071691  0.072434  0.000000     12.000000
  0.080652  0.077608  0.000000     12.000000
  0.089614  0.082782  0.000000     12.000000
  0.098575  0.087956  0.000000     12.000000
  0.107537  0.093129  0.000000     12.000000
  0.116498  0.098303  0.000000     12.000000
  0.125459  0.103477  0.000000     12.000000
  0.134421  0.108651  0.000000     12.000000
  0.143382  0.113825  0.000000      6.000000
  0.035846  0.062086  0.000000      6.000000
  0.044807  0.067260  0.000000     12.000000
  0.053768  0.072434  0.000000     12.000000
  0.062730  0.077608  0.000000     12.000000
  0.071691  0.082782  0.000000     12.000000
  0.080652  0.087956  0.000000     12.000000
  0.089614  0.093129  0.000000     12.000000
  0.098575  0.098303  0.000000     12.000000
  0.107537  0.103477  0.000000     12.000000
  0.116498  0.108651  0.000000     12.000000
  0.125459  0.113825  0.000000     12.000000
  0.134421  0.118999  0.000000     12.000000
  0.044807  0.077608  0.000000      6.000000
  0.053768  0.082782  0.000000     12.000000
  0.062730  0.087956  0.000000     12.000000
  0.071691  0.093129  0.000000     12.000000
  0.080652  0.098303  0.000000     12.000000
  0.089614  0.103477  0.000000     12.000000
  0.098575  0.108651  0.000000     12.000000
  0.107537  0.113825  0.000000     12.000000
  0.116498  0.118999  0.000000     12.000000
  0.125459  0.124173  0.000000     12.000000
  0.134421  0.129346  0.000000      6.000000
  0.053768  0.093129  0.000000      6.000000
  0.062730  0.098303  0.000000     12.000000
  0.071691  0.103477  0.000000     12.000000
  0.080652  0.108651  0.000000     12.000000
  0.089614  0.113825  0.000000     12.000000
  0.098575  0.118999  0.000000     12.000000
  0.107537  0.124173  0.000000     12.000000
  0.116498  0.129346  0.000000     12.000000
  0.125459  0.134520  0.000000     12.000000
  0.062730  0.108651  0.000000      6.000000
  0.071691  0.113825  0.000000     12.000000
  0.080652  0.118999  0.000000     12.000000
  0.089614  0.124173  0.000000     12.000000
  0.098575  0.129346  0.000000     12.000000
  0.107537  0.134520  0.000000     12.000000
  0.116498  0.139694  0.000000     12.000000
  0.125459  0.144868  0.000000      6.000000
  0.071691  0.124173  0.000000      6.000000
  0.080652  0.129346  0.000000     12.000000
  0.089614  0.134520  0.000000     12.000000
  0.098575  0.139694  0.000000     12.000000
  0.107537  0.144868  0.000000     12.000000
  0.116498  0.150042  0.000000     12.000000
  0.080652  0.139694  0.000000      6.000000
  0.089614  0.144868  0.000000     12.000000
  0.098575  0.150042  0.000000     12.000000
  0.107537  0.155216  0.000000     12.000000
  0.116498  0.160390  0.000000      6.000000
  0.089614  0.155216  0.000000      6.000000
  0.098575  0.160390  0.000000     12.000000
  0.107537  0.165563  0.000000     12.000000
  0.098575  0.170737  0.000000      6.000000
  0.107537  0.175911  0.000000      6.000000
 
 TETIRR: Found    630 inequivalent tetrahedra from     7350


--------------------------------------------------------------------------------------------------------




 Dimension of arrays:
   k-points           NKPTS =    120   k-points in BZ     NKDIM =    120   number of bands    NBANDS=     32
   number of dos      NEDOS =   2000   number of ions     NIONS =      6
   non local maximal  LDIM  =      6   non local SUM 2l+1 LMDIM =     18
   total plane-waves  NPLWV = 124416
   max r-space proj   IRMAX =      1   max aug-charges    IRDMAX=  15556
   dimension x,y,z NGX =    24 NGY =   24 NGZ =  216
   dimension x,y,z NGXF=    48 NGYF=   48 NGZF=  432
   support grid    NGXF=    48 NGYF=   48 NGZF=  432
   ions per type =               2   4
   NGX,Y,Z   is equivalent  to a cutoff of  12.51, 12.51, 12.39 a.u.
   NGXF,Y,Z  is equivalent  to a cutoff of  25.03, 25.03, 24.77 a.u.

 SYSTEM =  VSe2                                    
 POSCAR =  Primitive Cell, D = 3.1212              

 Startparameter for this run:
   NWRITE =      2    write-flag & timer
   PREC   = accura    normal or accurate (medium, high low for compatibility)
   ISTART =      0    job   : 0-new  1-cont  2-samecut
   ICHARG =     11    charge: 1-file 2-atom 10-const
   ISPIN  =      2    spin polarized calculation?
   LNONCOLLINEAR =      F non collinear calculations
   LSORBIT =      F    spin-orbit coupling
   INIWAV =      1    electr: 0-lowe 1-rand  2-diag
   LASPH  =      F    aspherical Exc in radial PAW
   METAGGA=      F    non-selfconsistent MetaGGA calc.

 Electronic Relaxation 1
   ENCUT  =  500.0 eV  36.75 Ry    6.06 a.u.   5.81  5.81 52.86*2*pi/ulx,y,z
   ENINI  =  500.0     initial cutoff
   ENAUG  =  598.5 eV  augmentation charge cutoff
   NELM   =    100;   NELMIN=  2; NELMDL= -5     # of ELM steps 
   EDIFF  = 0.1E-07   stopping-criterion for ELM
   LREAL  =      F    real-space projection
   NLSPLINE    = F    spline interpolate recip. space projectors
   LCOMPAT=      F    compatible to vasp.4.4
   GGA_COMPAT  = T    GGA compatible to vasp.4.4-vasp.4.6
   LMAXPAW     = -100 max onsite density
   LMAXMIX     =    4 max onsite mixed and CHGCAR
   VOSKOWN=      0    Vosko Wilk Nusair interpolation
   ROPT   =    0.00000   0.00000
 Ionic relaxation
   EDIFFG = 0.1E-06   stopping-criterion for IOM
   NSW    =      0    number of steps for IOM
   NBLOCK =      1;   KBLOCK =      1    inner block; outer block 
   IBRION =     -1    ionic relax: 0-MD 1-quasi-New 2-CG
   NFREE  =      0    steps in history (QN), initial steepest desc. (CG)
   ISIF   =      2    stress and relaxation
   IWAVPR =     10    prediction:  0-non 1-charg 2-wave 3-comb
   ISYM   =      2    0-nonsym 1-usesym 2-fastsym
   LCORR  =      T    Harris-Foulkes like correction to forces

   POTIM  = 0.5000    time-step for ionic-motion
   TEIN   =    0.0    initial temperature
   TEBEG  =    0.0;   TEEND  =   0.0 temperature during run
   SMASS  =  -3.00    Nose mass-parameter (am)
   estimated Nose-frequenzy (Omega)   =  0.10E-29 period in steps =****** mass=  -0.232E-27a.u.
   SCALEE = 1.0000    scale energy and forces
   NPACO  =    256;   APACO  = 16.0  distance and # of slots for P.C.
   PSTRESS=    0.0 pullay stress

  Mass of Ions in am
   POMASS =  50.94 32.07
  Ionic Valenz
   ZVAL   =  11.00  6.00
  Atomic Wigner-Seitz radii
   RWIGS  =  -1.00 -1.00
  virtual crystal weights 
   VCA    =   1.00  1.00
   NELECT =      46.0000    total number of electrons
   NUPDOWN=      -1.0000    fix difference up-down

 DOS related values:
   EMIN   =  10.00;   EMAX   =-10.00  energy-range for DOS
   EFERMI =   0.00
   ISMEAR =    -5;   SIGMA  =   0.20  broadening in eV -4-tet -1-fermi 0-gaus

 Electronic relaxation 2 (details)
   IALGO  =     38    algorithm
   LDIAG  =      T    sub-space diagonalisation (order eigenvalues)
   LSUBROT=      F    optimize rotation matrix (better conditioning)
   TURBO    =      0    0=normal 1=particle mesh
   IRESTART =      0    0=no restart 2=restart with 2 vectors
   NREBOOT  =      0    no. of reboots
   NMIN     =      0    reboot dimension
   EREF     =   0.00    reference energy to select bands
   IMIX   =      4    mixing-type and parameters
     AMIX     =   0.40;   BMIX     =  1.00
     AMIX_MAG =   1.60;   BMIX_MAG =  1.00
     AMIN     =   0.10
     WC   =   100.;   INIMIX=   1;  MIXPRE=   1;  MAXMIX= -45

 Intra band minimization:
   WEIMIN = 0.0000     energy-eigenvalue tresh-hold
   EBREAK =  0.78E-10  absolut break condition
   DEPER  =   0.30     relativ break condition  

   TIME   =   0.40     timestep for ELM

  volume/ion in A,a.u.               =      42.54       287.05
  Fermi-wavevector in a.u.,A,eV,Ry     =   0.924751  1.747527 11.635229  0.855165
  Thomas-Fermi vector in A             =   2.050531
 
 Write flags
   LWAVE        =      F    write WAVECAR
   LDOWNSAMPLE  =      F    k-point downsampling of WAVECAR
   LCHARG       =      T    write CHGCAR
   LVTOT        =      F    write LOCPOT, total local potential
   LVHAR        =      F    write LOCPOT, Hartree potential only
   LELF         =      F    write electronic localiz. function (ELF)
   LORBIT       =     11    0 simple, 1 ext, 2 COOP (PROOUT), +10 PAW based schemes


 Dipole corrections
   LMONO  =      F    monopole corrections only (constant potential shift)
   LDIPOL =      T    correct potential (dipole corrections)
   IDIPOL =      3    1-x, 2-y, 3-z, 4-all directions 
   EPSILON=  1.0000000 bulk dielectric constant

 LDA+U is selected, type is set to LDAUTYPE =  2
   angular momentum for each species LDAUL =     2   -1
   U (eV)           for each species LDAUU =   1.0  0.0
   J (eV)           for each species LDAUJ =   0.0  0.0
 Exchange correlation treatment:
   GGA     =    --    GGA type
   LEXCH   =     8    internal setting for exchange type
   VOSKOWN=      0    Vosko Wilk Nusair interpolation
   LHFCALC =     F    Hartree Fock is set to
   LHFONE  =     F    Hartree Fock one center treatment
   AEXX    =    0.0000 exact exchange contribution

 Linear response parameters
   LEPSILON=     F    determine dielectric tensor
   LRPA    =     F    only Hartree local field effects (RPA)
   LNABLA  =     F    use nabla operator in PAW spheres
   LVEL    =     F    velocity operator in full k-point grid
   LINTERFAST=   F  fast interpolation
   KINTER  =     0    interpolate to denser k-point grid
   CSHIFT  =0.1000    complex shift for real part using Kramers Kronig
   OMEGAMAX=  -1.0    maximum frequency
   DEG_THRESHOLD= 0.2000000E-02 threshold for treating states as degnerate
   RTIME   =   -0.100 relaxation time in fs
  (WPLASMAI=    0.000 imaginary part of plasma frequency in eV, 0.658/RTIME)
   DFIELD  = 0.0000000 0.0000000 0.0000000 field for delta impulse in time
 
 Orbital magnetization related:
   ORBITALMAG=     F  switch on orbital magnetization
   LCHIMAG   =     F  perturbation theory with respect to B field
   DQ        =  0.001000  dq finite difference perturbation B field
   LLRAUG    =     F  two centre corrections for induced B field



--------------------------------------------------------------------------------------------------------


 Static calculation
 charge density and potential remain constant during run
 spin polarized calculation
 Variant of blocked Davidson
 Davidson routine will perform the subspace rotation
 perform sub-space diagonalisation
    after iterative eigenvector-optimisation
 no mixing
 using additional bands            9
 reciprocal scheme for non local part
 use partial core corrections
 calculate Harris-corrections to forces 
   (improved forces if not selfconsistent)
 use gradient corrections 
 WARNING: stress and forces are not correct
  (second derivative of E(xc) not defined)
 use of overlap-Matrix (Vanderbilt PP)
 Fermi weights with tetrahedron method with Bloechl corrections


--------------------------------------------------------------------------------------------------------


  energy-cutoff  :      500.00
  volume of cell :      255.22
      direct lattice vectors                 reciprocal lattice vectors
     3.188283682  0.000000000  0.000000000     0.313648376  0.181084974  0.000000000
    -1.594141841  2.761134663  0.000000000     0.000000000  0.362169949  0.000000000
     0.000000000  0.000000000 28.990970612     0.000000000  0.000000000  0.034493498

  length of vectors
     3.188283682  3.188283682 28.990970612     0.362169949  0.362169949  0.034493498


 
 k-points in units of 2pi/SCALE and weight: !Auto mesh                              
   0.00000000  0.00000000  0.00000000       0.001
   0.00896138  0.00517386  0.00000000       0.005
   0.01792276  0.01034771  0.00000000       0.005
   0.02688415  0.01552157  0.00000000       0.005
   0.03584553  0.02069543  0.00000000       0.005
   0.04480691  0.02586928  0.00000000       0.005
   0.05376829  0.03104314  0.00000000       0.005
   0.06272968  0.03621699  0.00000000       0.005
   0.07169106  0.04139085  0.00000000       0.005
   0.08065244  0.04656471  0.00000000       0.005
   0.08961382  0.05173856  0.00000000       0.005
   0.09857520  0.05691242  0.00000000       0.005
   0.10753659  0.06208628  0.00000000       0.005
   0.11649797  0.06726013  0.00000000       0.005
   0.12545935  0.07243399  0.00000000       0.005
   0.13442073  0.07760785  0.00000000       0.005
   0.14338211  0.08278170  0.00000000       0.005
   0.15234350  0.08795556  0.00000000       0.005
   0.00896138  0.01552157  0.00000000       0.005
   0.01792276  0.02069543  0.00000000       0.010
   0.02688415  0.02586928  0.00000000       0.010
   0.03584553  0.03104314  0.00000000       0.010
   0.04480691  0.03621699  0.00000000       0.010
   0.05376829  0.04139085  0.00000000       0.010
   0.06272968  0.04656471  0.00000000       0.010
   0.07169106  0.05173856  0.00000000       0.010
   0.08065244  0.05691242  0.00000000       0.010
   0.08961382  0.06208628  0.00000000       0.010
   0.09857520  0.06726013  0.00000000       0.010
   0.10753659  0.07243399  0.00000000       0.010
   0.11649797  0.07760785  0.00000000       0.010
   0.12545935  0.08278170  0.00000000       0.010
   0.13442073  0.08795556  0.00000000       0.010
   0.14338211  0.09312942  0.00000000       0.010
   0.15234350  0.09830327  0.00000000       0.005
   0.01792276  0.03104314  0.00000000       0.005
   0.02688415  0.03621699  0.00000000       0.010
   0.03584553  0.04139085  0.00000000       0.010
   0.04480691  0.04656471  0.00000000       0.010
   0.05376829  0.05173856  0.00000000       0.010
   0.06272968  0.05691242  0.00000000       0.010
   0.07169106  0.06208628  0.00000000       0.010
   0.08065244  0.06726013  0.00000000       0.010
   0.08961382  0.07243399  0.00000000       0.010
   0.09857520  0.07760785  0.00000000       0.010
   0.10753659  0.08278170  0.00000000       0.010
   0.11649797  0.08795556  0.00000000       0.010
   0.12545935  0.09312942  0.00000000       0.010
   0.13442073  0.09830327  0.00000000       0.010
   0.14338211  0.10347713  0.00000000       0.010
   0.02688415  0.04656471  0.00000000       0.005
   0.03584553  0.05173856  0.00000000       0.010
   0.04480691  0.05691242  0.00000000       0.010
   0.05376829  0.06208628  0.00000000       0.010
   0.06272968  0.06726013  0.00000000       0.010
   0.07169106  0.07243399  0.00000000       0.010
   0.08065244  0.07760785  0.00000000       0.010
   0.08961382  0.08278170  0.00000000       0.010
   0.09857520  0.08795556  0.00000000       0.010
   0.10753659  0.09312942  0.00000000       0.010
   0.11649797  0.09830327  0.00000000       0.010
   0.12545935  0.10347713  0.00000000       0.010
   0.13442073  0.10865098  0.00000000       0.010
   0.14338211  0.11382484  0.00000000       0.005
   0.03584553  0.06208628  0.00000000       0.005
   0.04480691  0.06726013  0.00000000       0.010
   0.05376829  0.07243399  0.00000000       0.010
   0.06272968  0.07760785  0.00000000       0.010
   0.07169106  0.08278170  0.00000000       0.010
   0.08065244  0.08795556  0.00000000       0.010
   0.08961382  0.09312942  0.00000000       0.010
   0.09857520  0.09830327  0.00000000       0.010
   0.10753659  0.10347713  0.00000000       0.010
   0.11649797  0.10865098  0.00000000       0.010
   0.12545935  0.11382484  0.00000000       0.010
   0.13442073  0.11899870  0.00000000       0.010
   0.04480691  0.07760785  0.00000000       0.005
   0.05376829  0.08278170  0.00000000       0.010
   0.06272968  0.08795556  0.00000000       0.010
   0.07169106  0.09312942  0.00000000       0.010
   0.08065244  0.09830327  0.00000000       0.010
   0.08961382  0.10347713  0.00000000       0.010
   0.09857520  0.10865098  0.00000000       0.010
   0.10753659  0.11382484  0.00000000       0.010
   0.11649797  0.11899870  0.00000000       0.010
   0.12545935  0.12417255  0.00000000       0.010
   0.13442073  0.12934641  0.00000000       0.005
   0.05376829  0.09312942  0.00000000       0.005
   0.06272968  0.09830327  0.00000000       0.010
   0.07169106  0.10347713  0.00000000       0.010
   0.08065244  0.10865098  0.00000000       0.010
   0.08961382  0.11382484  0.00000000       0.010
   0.09857520  0.11899870  0.00000000       0.010
   0.10753659  0.12417255  0.00000000       0.010
   0.11649797  0.12934641  0.00000000       0.010
   0.12545935  0.13452027  0.00000000       0.010
   0.06272968  0.10865098  0.00000000       0.005
   0.07169106  0.11382484  0.00000000       0.010
   0.08065244  0.11899870  0.00000000       0.010
   0.08961382  0.12417255  0.00000000       0.010
   0.09857520  0.12934641  0.00000000       0.010
   0.10753659  0.13452027  0.00000000       0.010
   0.11649797  0.13969412  0.00000000       0.010
   0.12545935  0.14486798  0.00000000       0.005
   0.07169106  0.12417255  0.00000000       0.005
   0.08065244  0.12934641  0.00000000       0.010
   0.08961382  0.13452027  0.00000000       0.010
   0.09857520  0.13969412  0.00000000       0.010
   0.10753659  0.14486798  0.00000000       0.010
   0.11649797  0.15004184  0.00000000       0.010
   0.08065244  0.13969412  0.00000000       0.005
   0.08961382  0.14486798  0.00000000       0.010
   0.09857520  0.15004184  0.00000000       0.010
   0.10753659  0.15521569  0.00000000       0.010
   0.11649797  0.16038955  0.00000000       0.005
   0.08961382  0.15521569  0.00000000       0.005
   0.09857520  0.16038955  0.00000000       0.010
   0.10753659  0.16556341  0.00000000       0.010
   0.09857520  0.17073726  0.00000000       0.005
   0.10753659  0.17591112  0.00000000       0.005
 
 k-points in reciprocal lattice and weights: !Auto mesh                              
   0.00000000  0.00000000  0.00000000       0.001
   0.02857143  0.00000000  0.00000000       0.005
   0.05714286  0.00000000  0.00000000       0.005
   0.08571429  0.00000000  0.00000000       0.005
   0.11428571  0.00000000  0.00000000       0.005
   0.14285714  0.00000000  0.00000000       0.005
   0.17142857  0.00000000  0.00000000       0.005
   0.20000000  0.00000000  0.00000000       0.005
   0.22857143  0.00000000  0.00000000       0.005
   0.25714286  0.00000000  0.00000000       0.005
   0.28571429  0.00000000  0.00000000       0.005
   0.31428571  0.00000000  0.00000000       0.005
   0.34285714  0.00000000  0.00000000       0.005
   0.37142857  0.00000000  0.00000000       0.005
   0.40000000  0.00000000  0.00000000       0.005
   0.42857143  0.00000000  0.00000000       0.005
   0.45714286  0.00000000  0.00000000       0.005
   0.48571429  0.00000000  0.00000000       0.005
   0.02857143  0.02857143  0.00000000       0.005
   0.05714286  0.02857143  0.00000000       0.010
   0.08571429  0.02857143  0.00000000       0.010
   0.11428571  0.02857143  0.00000000       0.010
   0.14285714  0.02857143  0.00000000       0.010
   0.17142857  0.02857143  0.00000000       0.010
   0.20000000  0.02857143  0.00000000       0.010
   0.22857143  0.02857143  0.00000000       0.010
   0.25714286  0.02857143  0.00000000       0.010
   0.28571429  0.02857143  0.00000000       0.010
   0.31428571  0.02857143  0.00000000       0.010
   0.34285714  0.02857143  0.00000000       0.010
   0.37142857  0.02857143  0.00000000       0.010
   0.40000000  0.02857143  0.00000000       0.010
   0.42857143  0.02857143  0.00000000       0.010
   0.45714286  0.02857143  0.00000000       0.010
   0.48571429  0.02857143  0.00000000       0.005
   0.05714286  0.05714286  0.00000000       0.005
   0.08571429  0.05714286  0.00000000       0.010
   0.11428571  0.05714286  0.00000000       0.010
   0.14285714  0.05714286  0.00000000       0.010
   0.17142857  0.05714286  0.00000000       0.010
   0.20000000  0.05714286  0.00000000       0.010
   0.22857143  0.05714286  0.00000000       0.010
   0.25714286  0.05714286  0.00000000       0.010
   0.28571429  0.05714286  0.00000000       0.010
   0.31428571  0.05714286  0.00000000       0.010
   0.34285714  0.05714286  0.00000000       0.010
   0.37142857  0.05714286  0.00000000       0.010
   0.40000000  0.05714286  0.00000000       0.010
   0.42857143  0.05714286  0.00000000       0.010
   0.45714286  0.05714286  0.00000000       0.010
   0.08571429  0.08571429  0.00000000       0.005
   0.11428571  0.08571429  0.00000000       0.010
   0.14285714  0.08571429  0.00000000       0.010
   0.17142857  0.08571429  0.00000000       0.010
   0.20000000  0.08571429  0.00000000       0.010
   0.22857143  0.08571429  0.00000000       0.010
   0.25714286  0.08571429  0.00000000       0.010
   0.28571429  0.08571429  0.00000000       0.010
   0.31428571  0.08571429  0.00000000       0.010
   0.34285714  0.08571429  0.00000000       0.010
   0.37142857  0.08571429  0.00000000       0.010
   0.40000000  0.08571429  0.00000000       0.010
   0.42857143  0.08571429  0.00000000       0.010
   0.45714286  0.08571429  0.00000000       0.005
   0.11428571  0.11428571  0.00000000       0.005
   0.14285714  0.11428571  0.00000000       0.010
   0.17142857  0.11428571  0.00000000       0.010
   0.20000000  0.11428571  0.00000000       0.010
   0.22857143  0.11428571  0.00000000       0.010
   0.25714286  0.11428571  0.00000000       0.010
   0.28571429  0.11428571  0.00000000       0.010
   0.31428571  0.11428571  0.00000000       0.010
   0.34285714  0.11428571  0.00000000       0.010
   0.37142857  0.11428571  0.00000000       0.010
   0.40000000  0.11428571  0.00000000       0.010
   0.42857143  0.11428571  0.00000000       0.010
   0.14285714  0.14285714  0.00000000       0.005
   0.17142857  0.14285714  0.00000000       0.010
   0.20000000  0.14285714  0.00000000       0.010
   0.22857143  0.14285714  0.00000000       0.010
   0.25714286  0.14285714  0.00000000       0.010
   0.28571429  0.14285714  0.00000000       0.010
   0.31428571  0.14285714  0.00000000       0.010
   0.34285714  0.14285714  0.00000000       0.010
   0.37142857  0.14285714  0.00000000       0.010
   0.40000000  0.14285714  0.00000000       0.010
   0.42857143  0.14285714  0.00000000       0.005
   0.17142857  0.17142857  0.00000000       0.005
   0.20000000  0.17142857  0.00000000       0.010
   0.22857143  0.17142857  0.00000000       0.010
   0.25714286  0.17142857  0.00000000       0.010
   0.28571429  0.17142857  0.00000000       0.010
   0.31428571  0.17142857  0.00000000       0.010
   0.34285714  0.17142857  0.00000000       0.010
   0.37142857  0.17142857  0.00000000       0.010
   0.40000000  0.17142857  0.00000000       0.010
   0.20000000  0.20000000  0.00000000       0.005
   0.22857143  0.20000000  0.00000000       0.010
   0.25714286  0.20000000  0.00000000       0.010
   0.28571429  0.20000000  0.00000000       0.010
   0.31428571  0.20000000  0.00000000       0.010
   0.34285714  0.20000000  0.00000000       0.010
   0.37142857  0.20000000  0.00000000       0.010
   0.40000000  0.20000000  0.00000000       0.005
   0.22857143  0.22857143  0.00000000       0.005
   0.25714286  0.22857143  0.00000000       0.010
   0.28571429  0.22857143  0.00000000       0.010
   0.31428571  0.22857143  0.00000000       0.010
   0.34285714  0.22857143  0.00000000       0.010
   0.37142857  0.22857143  0.00000000       0.010
   0.25714286  0.25714286  0.00000000       0.005
   0.28571429  0.25714286  0.00000000       0.010
   0.31428571  0.25714286  0.00000000       0.010
   0.34285714  0.25714286  0.00000000       0.010
   0.37142857  0.25714286  0.00000000       0.005
   0.28571429  0.28571429  0.00000000       0.005
   0.31428571  0.28571429  0.00000000       0.010
   0.34285714  0.28571429  0.00000000       0.010
   0.31428571  0.31428571  0.00000000       0.005
   0.34285714  0.31428571  0.00000000       0.005
 
 position of ions in fractional coordinates (direct lattice) 
   0.00000000  0.00000000  0.05061699
   0.00000000  0.00000000  0.25951305
   0.66666669  0.33333331  0.00000000
   0.33333331  0.66666663  0.10123398
   0.66666669  0.33333331  0.20889607
   0.33333331  0.66666663  0.31013006
 
 position of ions in cartesian coordinates  (Angst):
   0.00000000  0.00000000  1.46743570
   0.00000000  0.00000000  7.52353521
   1.59414194  0.92037816  0.00000000
  -0.00000000  1.84075633  2.93487140
   1.59414194  0.92037816  6.05609986
  -0.00000000  1.84075633  8.99097146
 


--------------------------------------------------------------------------------------------------------


 k-point  1 :   0.0000 0.0000 0.0000  plane waves:    6435
 k-point  2 :   0.0286 0.0000 0.0000  plane waves:    6449
 k-point  3 :   0.0571 0.0000 0.0000  plane waves:    6442
 k-point  4 :   0.0857 0.0000 0.0000  plane waves:    6436
 k-point  5 :   0.1143 0.0000 0.0000  plane waves:    6444
 k-point  6 :   0.1429 0.0000 0.0000  plane waves:    6442
 k-point  7 :   0.1714 0.0000 0.0000  plane waves:    6452
 k-point  8 :   0.2000 0.0000 0.0000  plane waves:    6446
 k-point  9 :   0.2286 0.0000 0.0000  plane waves:    6462
 k-point 10 :   0.2571 0.0000 0.0000  plane waves:    6472
 k-point 11 :   0.2857 0.0000 0.0000  plane waves:    6474
 k-point 12 :   0.3143 0.0000 0.0000  plane waves:    6498
 k-point 13 :   0.3429 0.0000 0.0000  plane waves:    6504
 k-point 14 :   0.3714 0.0000 0.0000  plane waves:    6518
 k-point 15 :   0.4000 0.0000 0.0000  plane waves:    6532
 k-point 16 :   0.4286 0.0000 0.0000  plane waves:    6516
 k-point 17 :   0.4571 0.0000 0.0000  plane waves:    6502
 k-point 18 :   0.4857 0.0000 0.0000  plane waves:    6510
 k-point 19 :   0.0286 0.0286 0.0000  plane waves:    6439
 k-point 20 :   0.0571 0.0286 0.0000  plane waves:    6443
 k-point 21 :   0.0857 0.0286 0.0000  plane waves:    6439
 k-point 22 :   0.1143 0.0286 0.0000  plane waves:    6446
 k-point 23 :   0.1429 0.0286 0.0000  plane waves:    6446
 k-point 24 :   0.1714 0.0286 0.0000  plane waves:    6443
 k-point 25 :   0.2000 0.0286 0.0000  plane waves:    6464
 k-point 26 :   0.2286 0.0286 0.0000  plane waves:    6472
 k-point 27 :   0.2571 0.0286 0.0000  plane waves:    6479
 k-point 28 :   0.2857 0.0286 0.0000  plane waves:    6488
 k-point 29 :   0.3143 0.0286 0.0000  plane waves:    6497
 k-point 30 :   0.3429 0.0286 0.0000  plane waves:    6503
 k-point 31 :   0.3714 0.0286 0.0000  plane waves:    6524
 k-point 32 :   0.4000 0.0286 0.0000  plane waves:    6518
 k-point 33 :   0.4286 0.0286 0.0000  plane waves:    6508
 k-point 34 :   0.4571 0.0286 0.0000  plane waves:    6510
 k-point 35 :   0.4857 0.0286 0.0000  plane waves:    6502
 k-point 36 :   0.0571 0.0571 0.0000  plane waves:    6449
 k-point 37 :   0.0857 0.0571 0.0000  plane waves:    6453
 k-point 38 :   0.1143 0.0571 0.0000  plane waves:    6439
 k-point 39 :   0.1429 0.0571 0.0000  plane waves:    6447
 k-point 40 :   0.1714 0.0571 0.0000  plane waves:    6439
 k-point 41 :   0.2000 0.0571 0.0000  plane waves:    6452
 k-point 42 :   0.2286 0.0571 0.0000  plane waves:    6471
 k-point 43 :   0.2571 0.0571 0.0000  plane waves:    6469
 k-point 44 :   0.2857 0.0571 0.0000  plane waves:    6491
 k-point 45 :   0.3143 0.0571 0.0000  plane waves:    6505
 k-point 46 :   0.3429 0.0571 0.0000  plane waves:    6519
 k-point 47 :   0.3714 0.0571 0.0000  plane waves:    6510
 k-point 48 :   0.4000 0.0571 0.0000  plane waves:    6512
 k-point 49 :   0.4286 0.0571 0.0000  plane waves:    6499
 k-point 50 :   0.4571 0.0571 0.0000  plane waves:    6496
 k-point 51 :   0.0857 0.0857 0.0000  plane waves:    6449
 k-point 52 :   0.1143 0.0857 0.0000  plane waves:    6462
 k-point 53 :   0.1429 0.0857 0.0000  plane waves:    6460
 k-point 54 :   0.1714 0.0857 0.0000  plane waves:    6451
 k-point 55 :   0.2000 0.0857 0.0000  plane waves:    6456
 k-point 56 :   0.2286 0.0857 0.0000  plane waves:    6473
 k-point 57 :   0.2571 0.0857 0.0000  plane waves:    6482
 k-point 58 :   0.2857 0.0857 0.0000  plane waves:    6487
 k-point 59 :   0.3143 0.0857 0.0000  plane waves:    6505
 k-point 60 :   0.3429 0.0857 0.0000  plane waves:    6507
 k-point 61 :   0.3714 0.0857 0.0000  plane waves:    6497
 k-point 62 :   0.4000 0.0857 0.0000  plane waves:    6506
 k-point 63 :   0.4286 0.0857 0.0000  plane waves:    6501
 k-point 64 :   0.4571 0.0857 0.0000  plane waves:    6482
 k-point 65 :   0.1143 0.1143 0.0000  plane waves:    6458
 k-point 66 :   0.1429 0.1143 0.0000  plane waves:    6466
 k-point 67 :   0.1714 0.1143 0.0000  plane waves:    6449
 k-point 68 :   0.2000 0.1143 0.0000  plane waves:    6460
 k-point 69 :   0.2286 0.1143 0.0000  plane waves:    6480
 k-point 70 :   0.2571 0.1143 0.0000  plane waves:    6487
 k-point 71 :   0.2857 0.1143 0.0000  plane waves:    6497
 k-point 72 :   0.3143 0.1143 0.0000  plane waves:    6509
 k-point 73 :   0.3429 0.1143 0.0000  plane waves:    6501
 k-point 74 :   0.3714 0.1143 0.0000  plane waves:    6503
 k-point 75 :   0.4000 0.1143 0.0000  plane waves:    6493
 k-point 76 :   0.4286 0.1143 0.0000  plane waves:    6472
 k-point 77 :   0.1429 0.1429 0.0000  plane waves:    6458
 k-point 78 :   0.1714 0.1429 0.0000  plane waves:    6458
 k-point 79 :   0.2000 0.1429 0.0000  plane waves:    6478
 k-point 80 :   0.2286 0.1429 0.0000  plane waves:    6484
 k-point 81 :   0.2571 0.1429 0.0000  plane waves:    6487
 k-point 82 :   0.2857 0.1429 0.0000  plane waves:    6501
 k-point 83 :   0.3143 0.1429 0.0000  plane waves:    6495
 k-point 84 :   0.3429 0.1429 0.0000  plane waves:    6493
 k-point 85 :   0.3714 0.1429 0.0000  plane waves:    6486
 k-point 86 :   0.4000 0.1429 0.0000  plane waves:    6479
 k-point 87 :   0.4286 0.1429 0.0000  plane waves:    6476
 k-point 88 :   0.1714 0.1714 0.0000  plane waves:    6484
 k-point 89 :   0.2000 0.1714 0.0000  plane waves:    6485
 k-point 90 :   0.2286 0.1714 0.0000  plane waves:    6488
 k-point 91 :   0.2571 0.1714 0.0000  plane waves:    6497
 k-point 92 :   0.2857 0.1714 0.0000  plane waves:    6495
 k-point 93 :   0.3143 0.1714 0.0000  plane waves:    6485
 k-point 94 :   0.3429 0.1714 0.0000  plane waves:    6489
 k-point 95 :   0.3714 0.1714 0.0000  plane waves:    6484
 k-point 96 :   0.4000 0.1714 0.0000  plane waves:    6455
 k-point 97 :   0.2000 0.2000 0.0000  plane waves:    6472
 k-point 98 :   0.2286 0.2000 0.0000  plane waves:    6484
 k-point 99 :   0.2571 0.2000 0.0000  plane waves:    6477
 k-point ** :   0.2857 0.2000 0.0000  plane waves:    6487
 k-point ** :   0.3143 0.2000 0.0000  plane waves:    6489
 k-point ** :   0.3429 0.2000 0.0000  plane waves:    6472
 k-point ** :   0.3714 0.2000 0.0000  plane waves:    6468
 k-point ** :   0.4000 0.2000 0.0000  plane waves:    6444
 k-point ** :   0.2286 0.2286 0.0000  plane waves:    6482
 k-point ** :   0.2571 0.2286 0.0000  plane waves:    6481
 k-point ** :   0.2857 0.2286 0.0000  plane waves:    6485
 k-point ** :   0.3143 0.2286 0.0000  plane waves:    6484
 k-point ** :   0.3429 0.2286 0.0000  plane waves:    6469
 k-point ** :   0.3714 0.2286 0.0000  plane waves:    6463
 k-point ** :   0.2571 0.2571 0.0000  plane waves:    6492
 k-point ** :   0.2857 0.2571 0.0000  plane waves:    6479
 k-point ** :   0.3143 0.2571 0.0000  plane waves:    6479
 k-point ** :   0.3429 0.2571 0.0000  plane waves:    6475
 k-point ** :   0.3714 0.2571 0.0000  plane waves:    6464
 k-point ** :   0.2857 0.2857 0.0000  plane waves:    6474
 k-point ** :   0.3143 0.2857 0.0000  plane waves:    6475
 k-point ** :   0.3429 0.2857 0.0000  plane waves:    6477
 k-point ** :   0.3143 0.3143 0.0000  plane waves:    6470
 k-point ** :   0.3429 0.3143 0.0000  plane waves:    6452

 maximum and minimum number of plane-waves per node :      2189     2139

 maximum number of plane-waves:      6532
 maximum index in each direction: 
   IXMAX=    5   IYMAX=    5   IZMAX=   52
   IXMIN=   -6   IYMIN=   -6   IZMIN=  -52


 parallel 3D FFT for wavefunctions:
    minimum data exchange during FFTs selected (reduces bandwidth)
 parallel 3D FFT for charge:
    minimum data exchange during FFTs selected (reduces bandwidth)


 total amount of memory used by VASP MPI-rank0   187438. kBytes
=======================================================================

   base      :      30000. kBytes
   nonl-proj :      75550. kBytes
   fftplans  :       4013. kBytes
   grid      :       9984. kBytes
   one-center:         62. kBytes
   wavefun   :      67829. kBytes
 
     INWAV:  cpu time    0.0000: real time    0.0001
 initial charge density was supplied:
 number of electron      46.0000024 magnetization       1.4089072
 keeping initial charge density in first step


--------------------------------------------------------------------------------------------------------


 Maximum index for augmentation-charges         1203 (set IRDMAX)


--------------------------------------------------------------------------------------------------------


 First call to EWALD:  gamma=   0.279
 Maximum number of real-space cells 6x 6x 1
 Maximum number of reciprocal cells 2x 2x11

    FEWALD:  cpu time    0.0030: real time    0.0025


--------------------------------------- Iteration      1(   1)  ---------------------------------------


    POTLOK:  cpu time    0.1990: real time    0.2024
    SETDIJ:  cpu time    0.0100: real time    0.0094
atom =   1  type =  1  l = 2
 
 onsite density matrix
 
spin component  1
 
  0.3347 -0.0000 -0.0000  0.0241  0.0000
 -0.0000  0.4188  0.0000  0.0000  0.0241
 -0.0000  0.0000  0.3665 -0.0000  0.0000
  0.0241  0.0000 -0.0000  0.4188  0.0000
  0.0000  0.0241  0.0000  0.0000  0.3347
 
spin component  2
 
  0.2020  0.0000 -0.0000 -0.0696  0.0000
  0.0000  0.2929 -0.0000  0.0000 -0.0696
 -0.0000 -0.0000  0.1350  0.0000  0.0000
 -0.0696  0.0000  0.0000  0.2929 -0.0000
  0.0000 -0.0696  0.0000 -0.0000  0.2020
 
 occupancies and eigenvectors
 
  o =  0.1350  v =  0.0000  0.0000  0.0000  0.0000  0.0000 -0.0000  0.0000 -1.0000 -0.0000  0.0000      0.0000  0.0000  0.0000  0.0000  0.0000  0.0000  0.0000  0.0000  0.0000  0.0000
  o =  0.1643  v =  0.0000  0.0000  0.0000  0.0000  0.0000 -0.6416  0.3256  0.0000 -0.3473  0.6015      0.0000  0.0000  0.0000  0.0000  0.0000  0.0000  0.0000  0.0000  0.0000  0.0000
  o =  0.1643  v =  0.0000  0.0000  0.0000  0.0000  0.0000 -0.6015 -0.3473  0.0000 -0.3256 -0.6416      0.0000  0.0000  0.0000  0.0000  0.0000  0.0000  0.0000  0.0000  0.0000  0.0000
  o =  0.3283  v =  0.7049  0.1758  0.0000 -0.1875 -0.6611  0.0000  0.0000  0.0000  0.0000  0.0000      0.0000  0.0000  0.0000  0.0000  0.0000  0.0000  0.0000  0.0000  0.0000  0.0000
  o =  0.3283  v = -0.6611  0.1875 -0.0000  0.1758 -0.7049  0.0000  0.0000  0.0000  0.0000  0.0000      0.0000  0.0000  0.0000  0.0000  0.0000  0.0000  0.0000  0.0000  0.0000  0.0000
  o =  0.3306  v =  0.0000  0.0000  0.0000  0.0000  0.0000 -0.3472 -0.6015  0.0000  0.6415  0.3256      0.0000  0.0000  0.0000  0.0000  0.0000  0.0000  0.0000  0.0000  0.0000  0.0000
  o =  0.3306  v =  0.0000  0.0000  0.0000  0.0000  0.0000  0.3256 -0.6415 -0.0000 -0.6015  0.3472      0.0000  0.0000  0.0000  0.0000  0.0000  0.0000  0.0000  0.0000  0.0000  0.0000
  o =  0.3665  v =  0.0000  0.0000 -1.0000 -0.0000 -0.0000  0.0000  0.0000  0.0000  0.0000  0.0000      0.0000  0.0000  0.0000  0.0000  0.0000  0.0000  0.0000  0.0000  0.0000  0.0000
  o =  0.4252  v = -0.1875  0.6610  0.0000 -0.7049  0.1758  0.0000  0.0000  0.0000  0.0000  0.0000      0.0000  0.0000  0.0000  0.0000  0.0000  0.0000  0.0000  0.0000  0.0000  0.0000
  o =  0.4252  v =  0.1758  0.7049 -0.0000  0.6610  0.1875  0.0000  0.0000  0.0000  0.0000  0.0000      0.0000  0.0000  0.0000  0.0000  0.0000  0.0000  0.0000  0.0000  0.0000  0.0000
atom =   2  type =  1  l = 2
 
 onsite density matrix
 
spin component  1
 
  0.3347 -0.0000 -0.0000  0.0241  0.0000
 -0.0000  0.4188  0.0000  0.0000  0.0241
 -0.0000  0.0000  0.3665 -0.0000  0.0000
  0.0241  0.0000 -0.0000  0.4188  0.0000
  0.0000  0.0241  0.0000  0.0000  0.3347
 
spin component  2
 
  0.2020  0.0000 -0.0000 -0.0696  0.0000
  0.0000  0.2929 -0.0000  0.0000 -0.0696
 -0.0000 -0.0000  0.1350  0.0000  0.0000
 -0.0696  0.0000  0.0000  0.2929 -0.0000
  0.0000 -0.0696  0.0000 -0.0000  0.2020
 
 occupancies and eigenvectors
 
  o =  0.1350  v =  0.0000  0.0000  0.0000  0.0000  0.0000 -0.0000  0.0000 -1.0000 -0.0000  0.0000      0.0000  0.0000  0.0000  0.0000  0.0000  0.0000  0.0000  0.0000  0.0000  0.0000
  o =  0.1643  v =  0.0000  0.0000  0.0000  0.0000  0.0000 -0.6414  0.3257  0.0000 -0.3472  0.6016      0.0000  0.0000  0.0000  0.0000  0.0000  0.0000  0.0000  0.0000  0.0000  0.0000
  o =  0.1643  v =  0.0000  0.0000  0.0000  0.0000  0.0000 -0.6016 -0.3472  0.0000 -0.3257 -0.6414      0.0000  0.0000  0.0000  0.0000  0.0000  0.0000  0.0000  0.0000  0.0000  0.0000
  o =  0.3283  v =  0.7048  0.1759  0.0000 -0.1875 -0.6612  0.0000  0.0000  0.0000  0.0000  0.0000      0.0000  0.0000  0.0000  0.0000  0.0000  0.0000  0.0000  0.0000  0.0000  0.0000
  o =  0.3283  v = -0.6612  0.1875 -0.0000  0.1759 -0.7048  0.0000  0.0000  0.0000  0.0000  0.0000      0.0000  0.0000  0.0000  0.0000  0.0000  0.0000  0.0000  0.0000  0.0000  0.0000
  o =  0.3306  v =  0.0000  0.0000  0.0000  0.0000  0.0000 -0.3472 -0.6016  0.0000  0.6415  0.3256      0.0000  0.0000  0.0000  0.0000  0.0000  0.0000  0.0000  0.0000  0.0000  0.0000
  o =  0.3306  v =  0.0000  0.0000  0.0000  0.0000  0.0000  0.3256 -0.6415 -0.0000 -0.6016  0.3472      0.0000  0.0000  0.0000  0.0000  0.0000  0.0000  0.0000  0.0000  0.0000  0.0000
  o =  0.3665  v =  0.0000  0.0000 -1.0000 -0.0000 -0.0000  0.0000  0.0000  0.0000  0.0000  0.0000      0.0000  0.0000  0.0000  0.0000  0.0000  0.0000  0.0000  0.0000  0.0000  0.0000
  o =  0.4252  v = -0.1875  0.6611  0.0000 -0.7049  0.1758  0.0000  0.0000  0.0000  0.0000  0.0000      0.0000  0.0000  0.0000  0.0000  0.0000  0.0000  0.0000  0.0000  0.0000  0.0000
  o =  0.4252  v =  0.1758  0.7049 -0.0000  0.6611  0.1875  0.0000  0.0000  0.0000  0.0000  0.0000      0.0000  0.0000  0.0000  0.0000  0.0000  0.0000  0.0000  0.0000  0.0000  0.0000
     EDDAV:  cpu time   33.1050: real time   33.2096
 BZINTS: Fermi energy: 10.350243; 46.000000 electrons
         Band energy:-293.257095;  BLOECHL correction: -0.071439
       DOS:  cpu time    0.0750: real time    0.0746
    --------------------------------------------
      LOOP:  cpu time   33.3889: real time   33.4960

 eigenvalue-minimisations  : 18680
 total energy-change (2. order) : 0.3671551E+03  (-0.2184621E+04)
 number of electron      46.0000024 magnetization       1.4089072
 augmentation part       46.0000024 magnetization       1.4089072

 DIPCOR: dipole corrections for dipol
 direction  3 min pos   274,
 dipolmoment           0.000000      0.000000      0.000046 electrons x Angstroem
 Tr[quadrupol]       -49.493235

 energy correction for charged system         0.000000 eV
 dipol+quadrupol energy correction           -0.000000 eV
 added-field ion interaction         -0.001009 eV  (added to PSCEN)


 Free energy of the ion-electron system (eV)
  ---------------------------------------------------
  alpha Z        PSCENC =        63.26920357
  Ewald energy   TEWEN  =     17390.22404797
  -Hartree energ DENC   =    -20701.50774054
  -exchange      EXHF   =         0.00000000
  -V(xc)+E(xc)   XCENC  =       104.50218548
  PAW double counting   =      5037.12284684    -4983.71202439
  entropy T*S    EENTRO =         0.00000000
  eigenvalues    EBANDS =      -293.25709480
  atomic energy  EATOM  =      3750.51368352
  Solvation  Ediel_sol  =         0.00000000
  ---------------------------------------------------
  free energy    TOTEN  =       367.15510765 eV

  energy without entropy =      367.15510765  energy(sigma->0) =      367.15510765


--------------------------------------------------------------------------------------------------------




--------------------------------------- Iteration      1(   2)  ---------------------------------------


     EDDAV:  cpu time   31.3952: real time   31.4996
 BZINTS: Fermi energy:  0.035065; 46.000000 electrons
         Band energy:-658.099693;  BLOECHL correction: -0.043242
       DOS:  cpu time    0.0690: real time    0.0695
    --------------------------------------------
      LOOP:  cpu time   31.4642: real time   31.5691

 eigenvalue-minimisations  : 17376
 total energy-change (2. order) :-0.3648426E+03  (-0.3480780E+03)
 number of electron      46.0000024 magnetization       1.4089072
 augmentation part       46.0000024 magnetization       1.4089072

 DIPCOR: dipole corrections for dipol
 direction  3 min pos   274,
 dipolmoment           0.000000      0.000000      0.000046 electrons x Angstroem
 Tr[quadrupol]       -49.493235

 energy correction for charged system         0.000000 eV
 dipol+quadrupol energy correction           -0.000000 eV
 added-field ion interaction         -0.001009 eV  (added to PSCEN)


 Free energy of the ion-electron system (eV)
  ---------------------------------------------------
  alpha Z        PSCENC =        63.26920357
  Ewald energy   TEWEN  =     17390.22404797
  -Hartree energ DENC   =    -20701.50774054
  -exchange      EXHF   =         0.00000000
  -V(xc)+E(xc)   XCENC  =       104.50218548
  PAW double counting   =      5037.12284684    -4983.71202439
  entropy T*S    EENTRO =         0.00000000
  eigenvalues    EBANDS =      -658.09969343
  atomic energy  EATOM  =      3750.51368352
  Solvation  Ediel_sol  =         0.00000000
  ---------------------------------------------------
  free energy    TOTEN  =         2.31250903 eV

  energy without entropy =        2.31250903  energy(sigma->0) =        2.31250903


--------------------------------------------------------------------------------------------------------




--------------------------------------- Iteration      1(   3)  ---------------------------------------


     EDDAV:  cpu time   34.1308: real time   34.2401
 BZINTS: Fermi energy: -0.991905; 46.000000 electrons
         Band energy:-696.359375;  BLOECHL correction: -0.003762
       DOS:  cpu time    0.0630: real time    0.0633
    --------------------------------------------
      LOOP:  cpu time   34.1938: real time   34.3033

 eigenvalue-minimisations  : 19448
 total energy-change (2. order) :-0.3825968E+02  (-0.3580193E+02)
 number of electron      46.0000024 magnetization       1.4089072
 augmentation part       46.0000024 magnetization       1.4089072

 DIPCOR: dipole corrections for dipol
 direction  3 min pos   274,
 dipolmoment           0.000000      0.000000      0.000046 electrons x Angstroem
 Tr[quadrupol]       -49.493235

 energy correction for charged system         0.000000 eV
 dipol+quadrupol energy correction           -0.000000 eV
 added-field ion interaction         -0.001009 eV  (added to PSCEN)


 Free energy of the ion-electron system (eV)
  ---------------------------------------------------
  alpha Z        PSCENC =        63.26920357
  Ewald energy   TEWEN  =     17390.22404797
  -Hartree energ DENC   =    -20701.50774054
  -exchange      EXHF   =         0.00000000
  -V(xc)+E(xc)   XCENC  =       104.50218548
  PAW double counting   =      5037.12284684    -4983.71202439
  entropy T*S    EENTRO =         0.00000000
  eigenvalues    EBANDS =      -696.35937477
  atomic energy  EATOM  =      3750.51368352
  Solvation  Ediel_sol  =         0.00000000
  ---------------------------------------------------
  free energy    TOTEN  =       -35.94717231 eV

  energy without entropy =      -35.94717231  energy(sigma->0) =      -35.94717231


--------------------------------------------------------------------------------------------------------




--------------------------------------- Iteration      1(   4)  ---------------------------------------


     EDDAV:  cpu time   32.0301: real time   32.1324
 BZINTS: Fermi energy: -1.027515; 46.000000 electrons
         Band energy:-697.860181;  BLOECHL correction: -0.003792
       DOS:  cpu time    0.0590: real time    0.0592
    --------------------------------------------
      LOOP:  cpu time   32.0891: real time   32.1917

 eigenvalue-minimisations  : 17856
 total energy-change (2. order) :-0.1500806E+01  (-0.1476957E+01)
 number of electron      46.0000024 magnetization       1.4089072
 augmentation part       46.0000024 magnetization       1.4089072

 DIPCOR: dipole corrections for dipol
 direction  3 min pos   274,
 dipolmoment           0.000000      0.000000      0.000046 electrons x Angstroem
 Tr[quadrupol]       -49.493235

 energy correction for charged system         0.000000 eV
 dipol+quadrupol energy correction           -0.000000 eV
 added-field ion interaction         -0.001009 eV  (added to PSCEN)


 Free energy of the ion-electron system (eV)
  ---------------------------------------------------
  alpha Z        PSCENC =        63.26920357
  Ewald energy   TEWEN  =     17390.22404797
  -Hartree energ DENC   =    -20701.50774054
  -exchange      EXHF   =         0.00000000
  -V(xc)+E(xc)   XCENC  =       104.50218548
  PAW double counting   =      5037.12284684    -4983.71202439
  entropy T*S    EENTRO =         0.00000000
  eigenvalues    EBANDS =      -697.86018122
  atomic energy  EATOM  =      3750.51368352
  Solvation  Ediel_sol  =         0.00000000
  ---------------------------------------------------
  free energy    TOTEN  =       -37.44797876 eV

  energy without entropy =      -37.44797876  energy(sigma->0) =      -37.44797876


--------------------------------------------------------------------------------------------------------




--------------------------------------- Iteration      1(   5)  ---------------------------------------


     EDDAV:  cpu time   33.2729: real time   33.3777
 BZINTS: Fermi energy: -1.029052; 46.000000 electrons
         Band energy:-697.905418;  BLOECHL correction: -0.003785
       DOS:  cpu time    0.0580: real time    0.0574
    --------------------------------------------
      LOOP:  cpu time   33.3309: real time   33.4351

 eigenvalue-minimisations  : 18800
 total energy-change (2. order) :-0.4523681E-01  (-0.4521542E-01)
 number of electron      46.0000024 magnetization       1.4089072
 augmentation part       46.0000024 magnetization       1.4089072

 DIPCOR: dipole corrections for dipol
 direction  3 min pos   274,
 dipolmoment           0.000000      0.000000      0.000046 electrons x Angstroem
 Tr[quadrupol]       -49.493235

 energy correction for charged system         0.000000 eV
 dipol+quadrupol energy correction           -0.000000 eV
 added-field ion interaction         -0.001009 eV  (added to PSCEN)


 Free energy of the ion-electron system (eV)
  ---------------------------------------------------
  alpha Z        PSCENC =        63.26920357
  Ewald energy   TEWEN  =     17390.22404797
  -Hartree energ DENC   =    -20701.50774054
  -exchange      EXHF   =         0.00000000
  -V(xc)+E(xc)   XCENC  =       104.50218548
  PAW double counting   =      5037.12284684    -4983.71202439
  entropy T*S    EENTRO =         0.00000000
  eigenvalues    EBANDS =      -697.90541803
  atomic energy  EATOM  =      3750.51368352
  Solvation  Ediel_sol  =         0.00000000
  ---------------------------------------------------
  free energy    TOTEN  =       -37.49321557 eV

  energy without entropy =      -37.49321557  energy(sigma->0) =      -37.49321557


--------------------------------------------------------------------------------------------------------




--------------------------------------- Iteration      1(   6)  ---------------------------------------


     EDDAV:  cpu time   33.4659: real time   33.5721
 BZINTS: Fermi energy: -1.029123; 46.000000 electrons
         Band energy:-697.907135;  BLOECHL correction: -0.003785
       DOS:  cpu time    0.0600: real time    0.0605
    --------------------------------------------
      LOOP:  cpu time   33.5259: real time   33.6326

 eigenvalue-minimisations  : 18944
 total energy-change (2. order) :-0.1716801E-02  (-0.1716948E-02)
 number of electron      46.0000024 magnetization       1.4089072
 augmentation part       46.0000024 magnetization       1.4089072

 DIPCOR: dipole corrections for dipol
 direction  3 min pos   274,
 dipolmoment           0.000000      0.000000      0.000046 electrons x Angstroem
 Tr[quadrupol]       -49.493235

 energy correction for charged system         0.000000 eV
 dipol+quadrupol energy correction           -0.000000 eV
 added-field ion interaction         -0.001009 eV  (added to PSCEN)


 Free energy of the ion-electron system (eV)
  ---------------------------------------------------
  alpha Z        PSCENC =        63.26920357
  Ewald energy   TEWEN  =     17390.22404797
  -Hartree energ DENC   =    -20701.50774054
  -exchange      EXHF   =         0.00000000
  -V(xc)+E(xc)   XCENC  =       104.50218548
  PAW double counting   =      5037.12284684    -4983.71202439
  entropy T*S    EENTRO =         0.00000000
  eigenvalues    EBANDS =      -697.90713483
  atomic energy  EATOM  =      3750.51368352
  Solvation  Ediel_sol  =         0.00000000
  ---------------------------------------------------
  free energy    TOTEN  =       -37.49493237 eV

  energy without entropy =      -37.49493237  energy(sigma->0) =      -37.49493237


--------------------------------------------------------------------------------------------------------




--------------------------------------- Iteration      1(   7)  ---------------------------------------


     EDDAV:  cpu time   33.5659: real time   33.6844
 BZINTS: Fermi energy: -1.029124; 46.000000 electrons
         Band energy:-697.907199;  BLOECHL correction: -0.003785
       DOS:  cpu time    0.0570: real time    0.0572
    --------------------------------------------
      LOOP:  cpu time   33.6229: real time   33.7416

 eigenvalue-minimisations  : 19032
 total energy-change (2. order) :-0.6458698E-04  (-0.6459634E-04)
 number of electron      46.0000024 magnetization       1.4089072
 augmentation part       46.0000024 magnetization       1.4089072

 DIPCOR: dipole corrections for dipol
 direction  3 min pos   274,
 dipolmoment           0.000000      0.000000      0.000046 electrons x Angstroem
 Tr[quadrupol]       -49.493235

 energy correction for charged system         0.000000 eV
 dipol+quadrupol energy correction           -0.000000 eV
 added-field ion interaction         -0.001009 eV  (added to PSCEN)


 Free energy of the ion-electron system (eV)
  ---------------------------------------------------
  alpha Z        PSCENC =        63.26920357
  Ewald energy   TEWEN  =     17390.22404797
  -Hartree energ DENC   =    -20701.50774054
  -exchange      EXHF   =         0.00000000
  -V(xc)+E(xc)   XCENC  =       104.50218548
  PAW double counting   =      5037.12284684    -4983.71202439
  entropy T*S    EENTRO =         0.00000000
  eigenvalues    EBANDS =      -697.90719942
  atomic energy  EATOM  =      3750.51368352
  Solvation  Ediel_sol  =         0.00000000
  ---------------------------------------------------
  free energy    TOTEN  =       -37.49499696 eV

  energy without entropy =      -37.49499696  energy(sigma->0) =      -37.49499696


--------------------------------------------------------------------------------------------------------




--------------------------------------- Iteration      1(   8)  ---------------------------------------


     EDDAV:  cpu time   33.5129: real time   33.6238
 BZINTS: Fermi energy: -1.029124; 46.000000 electrons
         Band energy:-697.907202;  BLOECHL correction: -0.003785
       DOS:  cpu time    0.0590: real time    0.0589
    --------------------------------------------
      LOOP:  cpu time   33.5719: real time   33.6827

 eigenvalue-minimisations  : 19008
 total energy-change (2. order) :-0.2880890E-05  (-0.2881116E-05)
 number of electron      46.0000024 magnetization       1.4089072
 augmentation part       46.0000024 magnetization       1.4089072

 DIPCOR: dipole corrections for dipol
 direction  3 min pos   274,
 dipolmoment           0.000000      0.000000      0.000046 electrons x Angstroem
 Tr[quadrupol]       -49.493235

 energy correction for charged system         0.000000 eV
 dipol+quadrupol energy correction           -0.000000 eV
 added-field ion interaction         -0.001009 eV  (added to PSCEN)


 Free energy of the ion-electron system (eV)
  ---------------------------------------------------
  alpha Z        PSCENC =        63.26920357
  Ewald energy   TEWEN  =     17390.22404797
  -Hartree energ DENC   =    -20701.50774054
  -exchange      EXHF   =         0.00000000
  -V(xc)+E(xc)   XCENC  =       104.50218548
  PAW double counting   =      5037.12284684    -4983.71202439
  entropy T*S    EENTRO =         0.00000000
  eigenvalues    EBANDS =      -697.90720230
  atomic energy  EATOM  =      3750.51368352
  Solvation  Ediel_sol  =         0.00000000
  ---------------------------------------------------
  free energy    TOTEN  =       -37.49499984 eV

  energy without entropy =      -37.49499984  energy(sigma->0) =      -37.49499984


--------------------------------------------------------------------------------------------------------




--------------------------------------- Iteration      1(   9)  ---------------------------------------


     EDDAV:  cpu time   31.7642: real time   31.8672
 BZINTS: Fermi energy: -1.029124; 46.000000 electrons
         Band energy:-697.907202;  BLOECHL correction: -0.003785
       DOS:  cpu time    0.0590: real time    0.0605
    --------------------------------------------
      LOOP:  cpu time   31.8232: real time   31.9277

 eigenvalue-minimisations  : 17640
 total energy-change (2. order) :-0.1627304E-06  (-0.1626616E-06)
 number of electron      46.0000024 magnetization       1.4089072
 augmentation part       46.0000024 magnetization       1.4089072

 DIPCOR: dipole corrections for dipol
 direction  3 min pos   274,
 dipolmoment           0.000000      0.000000      0.000046 electrons x Angstroem
 Tr[quadrupol]       -49.493235

 energy correction for charged system         0.000000 eV
 dipol+quadrupol energy correction           -0.000000 eV
 added-field ion interaction         -0.001009 eV  (added to PSCEN)


 Free energy of the ion-electron system (eV)
  ---------------------------------------------------
  alpha Z        PSCENC =        63.26920357
  Ewald energy   TEWEN  =     17390.22404797
  -Hartree energ DENC   =    -20701.50774054
  -exchange      EXHF   =         0.00000000
  -V(xc)+E(xc)   XCENC  =       104.50218548
  PAW double counting   =      5037.12284684    -4983.71202439
  entropy T*S    EENTRO =         0.00000000
  eigenvalues    EBANDS =      -697.90720246
  atomic energy  EATOM  =      3750.51368352
  Solvation  Ediel_sol  =         0.00000000
  ---------------------------------------------------
  free energy    TOTEN  =       -37.49500000 eV

  energy without entropy =      -37.49500000  energy(sigma->0) =      -37.49500000


--------------------------------------------------------------------------------------------------------




--------------------------------------- Iteration      1(  10)  ---------------------------------------


     EDDAV:  cpu time   28.0777: real time   28.1709
 BZINTS: Fermi energy: -1.029124; 46.000000 electrons
         Band energy:-697.907202;  BLOECHL correction: -0.003785
       DOS:  cpu time    0.0580: real time    0.0588
    --------------------------------------------
      LOOP:  cpu time   28.1357: real time   28.2298

 eigenvalue-minimisations  : 14712
 total energy-change (2. order) :-0.9720679E-08  (-0.9856551E-08)
 number of electron      46.0000024 magnetization       1.4089072
 augmentation part       46.0000024 magnetization       1.4089072

 DIPCOR: dipole corrections for dipol
 direction  3 min pos   274,
 dipolmoment           0.000000      0.000000      0.000046 electrons x Angstroem
 Tr[quadrupol]       -49.493235

 energy correction for charged system         0.000000 eV
 dipol+quadrupol energy correction           -0.000000 eV
 added-field ion interaction         -0.001009 eV  (added to PSCEN)


 Free energy of the ion-electron system (eV)
  ---------------------------------------------------
  alpha Z        PSCENC =        63.26920357
  Ewald energy   TEWEN  =     17390.22404797
  -Hartree energ DENC   =    -20701.50774054
  -exchange      EXHF   =         0.00000000
  -V(xc)+E(xc)   XCENC  =       104.50218548
  PAW double counting   =      5037.12284684    -4983.71202439
  entropy T*S    EENTRO =         0.00000000
  eigenvalues    EBANDS =      -697.90720247
  atomic energy  EATOM  =      3750.51368352
  Solvation  Ediel_sol  =         0.00000000
  ---------------------------------------------------
  free energy    TOTEN  =       -37.49500001 eV

  energy without entropy =      -37.49500001  energy(sigma->0) =      -37.49500001


--------------------------------------------------------------------------------------------------------




 average (electrostatic) potential at core
  the test charge radii are     0.9339  0.9698
  (the norm of the test charge is              1.0000)
       1 -54.7594       2 -54.7591       3 -92.6663       4 -92.7039       5 -92.7038
       6 -92.6657
 
 
 
 E-fermi :  -1.0291     XC(G=0):  -4.6759     alpha+bet : -4.7722


 spin component 1

 k-point     1 :       0.0000    0.0000    0.0000
  band No.  band energies     occupation 
      1     -40.2328      1.00000
      2     -40.2328      1.00000
      3     -40.2325      1.00000
      4     -40.2325      1.00000
      5     -40.1825      1.00000
      6     -40.1821      1.00000
      7     -15.5527      1.00000
      8     -15.4324      1.00000
      9     -14.3455      1.00000
     10     -14.1621      1.00000
     11      -6.9079      1.00000
     12      -6.3446      1.00000
     13      -3.9653      1.00000
     14      -3.9653      1.00000
     15      -3.9583      1.00000
     16      -3.9582      1.00000
     17      -3.6372      1.00000
     18      -2.6505      1.00000
     19      -1.6521      1.00000
     20      -1.6521      1.00000
     21      -1.6496      1.00000
     22      -1.6496      1.00000
     23      -1.3635      1.00000
     24      -0.9458      0.00000
     25      -0.6396      0.00000
     26      -0.6396      0.00000
     27      -0.5948      0.00000
     28      -0.5948      0.00000
     29       2.1473      0.00000
     30       2.1473      0.00000
     31       2.2209      0.00000
     32       2.2209      0.00000

 k-point     2 :       0.0286    0.0000    0.0000
  band No.  band energies     occupation 
      1     -40.2339      1.00000
      2     -40.2336      1.00000
      3     -40.2331      1.00000
      4     -40.2327      1.00000
[...]

 k-point   118 :       0.3429    0.2857    0.0000
  band No.  band energies     occupation 
      1     -39.5989      1.00000
      2     -39.5986      1.00000
      3     -39.5764      1.00000
      4     -39.5761      1.00000
      5     -39.3390      1.00000
      6     -39.3386      1.00000
      7     -13.2717      1.00000
      8     -13.2439      1.00000
      9     -13.2128      1.00000
     10     -13.2097      1.00000
     11      -6.1644      1.00000
     12      -6.1566      1.00000
     13      -5.9223      1.00000
     14      -5.8458      1.00000
     15      -5.4608      1.00000
     16      -5.4019      1.00000
     17      -4.5393      1.00000
     18      -4.3807      1.00000
     19      -4.0313      1.00000
     20      -3.9601      1.00000
     21      -3.8957      1.00000
     22      -3.8085      1.00000
     23       0.1049      0.00000
     24       0.2305      0.00000
     25       0.3731      0.00000
     26       0.4963      0.00000
     27       0.5283      0.00000
     28       0.5868      0.00000
     29       1.5171      0.00000
     30       1.7558      0.00000
     31       1.9468      0.00000
     32       2.2400      0.00000

 k-point   119 :       0.3143    0.3143    0.0000
  band No.  band energies     occupation 
      1     -39.5960      1.00000
      2     -39.5957      1.00000
      3     -39.5799      1.00000
      4     -39.5795      1.00000
      5     -39.3389      1.00000
      6     -39.3385      1.00000
      7     -13.2609      1.00000
      8     -13.2349      1.00000
      9     -13.2094      1.00000
     10     -13.2089      1.00000
     11      -6.0576      1.00000
     12      -6.0523      1.00000
     13      -5.9383      1.00000
     14      -5.8692      1.00000
     15      -5.5735      1.00000
     16      -5.5105      1.00000
     17      -4.5490      1.00000
     18      -4.3749      1.00000
     19      -4.0416      1.00000
     20      -3.9470      1.00000
     21      -3.8732      1.00000
     22      -3.8702      1.00000
     23       0.2477      0.00000
     24       0.2501      0.00000
     25       0.3190      0.00000
     26       0.4311      0.00000
     27       0.5141      0.00000
     28       0.5801      0.00000
     29       1.5429      0.00000
     30       1.8033      0.00000
     31       1.9006      0.00000
     32       2.1837      0.00000

 k-point   120 :       0.3429    0.3143    0.0000
  band No.  band energies     occupation 
      1     -39.5926      1.00000
      2     -39.5922      1.00000
      3     -39.5841      1.00000
      4     -39.5837      1.00000
      5     -39.3388      1.00000
      6     -39.3384      1.00000
      7     -13.2450      1.00000
      8     -13.2334      1.00000
      9     -13.2001      1.00000
     10     -13.1995      1.00000
     11      -5.9914      1.00000
     12      -5.9845      1.00000
     13      -5.9104      1.00000
     14      -5.8461      1.00000
     15      -5.7088      1.00000
     16      -5.6289      1.00000
     17      -4.5566      1.00000
     18      -4.3680      1.00000
     19      -4.0057      1.00000
     20      -4.0013      1.00000
     21      -3.8930      1.00000
     22      -3.8648      1.00000
     23       0.2462      0.00000
     24       0.3464      0.00000
     25       0.3540      0.00000
     26       0.4219      0.00000
     27       0.4912      0.00000
     28       0.5015      0.00000
     29       1.6264      0.00000
     30       1.7947      0.00000
     31       1.9021      0.00000
     32       2.0894      0.00000


--------------------------------------------------------------------------------------------------------


 soft charge-density along one line, spin component           1
         0         1         2         3         4         5         6         7         8         9
 total charge-density along one line
 
 soft charge-density along one line, spin component           2
         0         1         2         3         4         5         6         7         8         9
 total charge-density along one line
 
 pseudopotential strength for first ion, spin component:           1
-43.339   0.000   0.000  11.267  -0.000  -0.000   0.000   0.000
  0.000 -43.265  -0.000  -0.000  11.220   0.000   0.000  -0.000
  0.000  -0.000 -43.339  -0.000   0.000  11.267  -0.000   0.000
 11.267  -0.000  -0.000   3.562   0.000   0.000  -0.000  -0.000
 -0.000  11.220   0.000   0.000   3.580  -0.000  -0.000   0.000
 -0.000   0.000  11.267   0.000  -0.000   3.562   0.000  -0.000
  0.000   0.000  -0.000  -0.000  -0.000   0.000  -9.118  -0.000
  0.000  -0.000   0.000  -0.000   0.000  -0.000  -0.000  -9.116
  0.000   0.001  -0.000  -0.000  -0.001   0.000  -0.000   0.000
  0.000   0.000   0.000  -0.000  -0.000  -0.000  -0.064   0.000
 -0.000  -0.000   0.000   0.000   0.000  -0.000  -0.000  -0.064
  0.000   0.000  -0.000  -0.000  -0.000   0.000  -9.986  -0.000
  0.001  -0.000   0.000  -0.000   0.000  -0.000  -0.000  -9.979
  0.000   0.001  -0.000  -0.000  -0.001   0.000  -0.000   0.000
  0.000   0.000   0.001  -0.000  -0.000  -0.000  -0.073   0.000
 -0.000  -0.000   0.000   0.000   0.000  -0.000  -0.000  -0.073
  0.000  -0.000  -0.000  -0.000   0.000   0.000  -0.000  -0.000
  0.000  -0.001  -0.000  -0.000   0.001   0.000  -0.000  -0.000
 pseudopotential strength for first ion, spin component:           2
-42.955   0.000   0.000  11.037  -0.000  -0.000   0.000   0.001
  0.000 -42.859  -0.000  -0.000  10.973   0.000   0.000  -0.000
  0.000  -0.000 -42.955  -0.000   0.000  11.037  -0.000   0.000
 11.037  -0.000  -0.000   3.672   0.000   0.000  -0.000  -0.000
 -0.000  10.973   0.000   0.000   3.696  -0.000  -0.000   0.000
 -0.000   0.000  11.037   0.000  -0.000   3.672   0.000  -0.000
  0.000   0.000  -0.000  -0.000  -0.000   0.000  -8.643  -0.000
  0.001  -0.000   0.000  -0.000   0.000  -0.000  -0.000  -8.678
  0.000   0.001  -0.000  -0.000  -0.001   0.000  -0.000   0.000
  0.000   0.000   0.001  -0.000  -0.000  -0.000   0.108   0.000
 -0.000  -0.000   0.000   0.000   0.000  -0.000  -0.000   0.108
  0.000   0.000  -0.000  -0.000  -0.000   0.000  -9.445  -0.000
  0.001  -0.000   0.000  -0.000   0.000  -0.000  -0.000  -9.481
  0.000   0.001  -0.000  -0.000  -0.001   0.000  -0.000   0.000
  0.000   0.000   0.001  -0.000  -0.000  -0.000   0.121   0.000
 -0.000  -0.000   0.000   0.000   0.000  -0.000  -0.000   0.121
  0.000  -0.000  -0.000  -0.000   0.000   0.000  -0.000  -0.000
  0.000  -0.001  -0.000  -0.000   0.001   0.000  -0.000  -0.000
 total augmentation occupancy for first ion, spin component:           1
  2.000   0.000   0.000   0.000   0.000   0.000   0.000   0.000   0.000   0.000   0.000   0.000   0.000   0.000   0.000   0.000
  0.000   2.000   0.000   0.000   0.000   0.000   0.000   0.000   0.000   0.000   0.000   0.000   0.000   0.000   0.000   0.000
  0.000   0.000   2.000   0.000   0.000   0.000   0.000   0.000   0.000   0.000   0.000   0.000   0.000   0.000   0.000   0.000
  0.000   0.000   0.000   0.000   0.000   0.000   0.000   0.000   0.000   0.000   0.000   0.000   0.000   0.000   0.000   0.000
  0.000   0.000   0.000   0.000   0.000   0.000   0.000   0.000   0.000   0.000   0.000   0.000   0.000   0.000   0.000   0.000
  0.000   0.000   0.000   0.000   0.000   0.000   0.000   0.000   0.000   0.000   0.000   0.000   0.000   0.000   0.000   0.000
  0.000   0.000   0.000   0.000   0.000   0.000   0.800   0.000   0.000   0.000   0.000   0.000   0.000   0.000   0.000   0.000
  0.000   0.000   0.000   0.000   0.000   0.000   0.000   0.800   0.000   0.000   0.000   0.000   0.000   0.000   0.000   0.000
  0.000   0.000   0.000   0.000   0.000   0.000   0.000   0.000   0.800   0.000   0.000   0.000   0.000   0.000   0.000   0.000
  0.000   0.000   0.000   0.000   0.000   0.000   0.000   0.000   0.000   0.800   0.000   0.000   0.000   0.000   0.000   0.000
  0.000   0.000   0.000   0.000   0.000   0.000   0.000   0.000   0.000   0.000   0.800   0.000   0.000   0.000   0.000   0.000
  0.000   0.000   0.000   0.000   0.000   0.000   0.000   0.000   0.000   0.000   0.000   0.000   0.000   0.000   0.000   0.000
  0.000   0.000   0.000   0.000   0.000   0.000   0.000   0.000   0.000   0.000   0.000   0.000   0.000   0.000   0.000   0.000
  0.000   0.000   0.000   0.000   0.000   0.000   0.000   0.000   0.000   0.000   0.000   0.000   0.000   0.000   0.000   0.000
  0.000   0.000   0.000   0.000   0.000   0.000   0.000   0.000   0.000   0.000   0.000   0.000   0.000   0.000   0.000   0.000
  0.000   0.000   0.000   0.000   0.000   0.000   0.000   0.000   0.000   0.000   0.000   0.000   0.000   0.000   0.000   0.000
  0.000   0.000   0.000   0.000   0.000   0.000   0.000   0.000   0.000   0.000   0.000   0.000   0.000   0.000   0.000   0.000
  0.000   0.000   0.000   0.000   0.000   0.000   0.000   0.000   0.000   0.000   0.000   0.000   0.000   0.000   0.000   0.000
 total augmentation occupancy for first ion, spin component:           2
  0.364   0.000   0.000   0.000   0.000   0.000   0.000   0.000   0.000   0.000   0.000   0.000   0.000   0.000   0.000   0.000
  0.000   0.364   0.000   0.000   0.000   0.000   0.000   0.000   0.000   0.000   0.000   0.000   0.000   0.000   0.000   0.000
  0.000   0.000   0.364   0.000   0.000   0.000   0.000   0.000   0.000   0.000   0.000   0.000   0.000   0.000   0.000   0.000
  0.000   0.000   0.000   0.000   0.000   0.000   0.000   0.000   0.000   0.000   0.000   0.000   0.000   0.000   0.000   0.000
  0.000   0.000   0.000   0.000   0.000   0.000   0.000   0.000   0.000   0.000   0.000   0.000   0.000   0.000   0.000   0.000
  0.000   0.000   0.000   0.000   0.000   0.000   0.000   0.000   0.000   0.000   0.000   0.000   0.000   0.000   0.000   0.000
  0.000   0.000   0.000   0.000   0.000   0.000   0.145   0.000   0.000   0.000   0.000   0.000   0.000   0.000   0.000   0.000
  0.000   0.000   0.000   0.000   0.000   0.000   0.000   0.145   0.000   0.000   0.000   0.000   0.000   0.000   0.000   0.000
  0.000   0.000   0.000   0.000   0.000   0.000   0.000   0.000   0.145   0.000   0.000   0.000   0.000   0.000   0.000   0.000
  0.000   0.000   0.000   0.000   0.000   0.000   0.000   0.000   0.000   0.145   0.000   0.000   0.000   0.000   0.000   0.000
  0.000   0.000   0.000   0.000   0.000   0.000   0.000   0.000   0.000   0.000   0.145   0.000   0.000   0.000   0.000   0.000
  0.000   0.000   0.000   0.000   0.000   0.000   0.000   0.000   0.000   0.000   0.000   0.000   0.000   0.000   0.000   0.000
  0.000   0.000   0.000   0.000   0.000   0.000   0.000   0.000   0.000   0.000   0.000   0.000   0.000   0.000   0.000   0.000
  0.000   0.000   0.000   0.000   0.000   0.000   0.000   0.000   0.000   0.000   0.000   0.000   0.000   0.000   0.000   0.000
  0.000   0.000   0.000   0.000   0.000   0.000   0.000   0.000   0.000   0.000   0.000   0.000   0.000   0.000   0.000   0.000
  0.000   0.000   0.000   0.000   0.000   0.000   0.000   0.000   0.000   0.000   0.000   0.000   0.000   0.000   0.000   0.000
  0.000   0.000   0.000   0.000   0.000   0.000   0.000   0.000   0.000   0.000   0.000   0.000   0.000   0.000   0.000   0.000
  0.000   0.000   0.000   0.000   0.000   0.000   0.000   0.000   0.000   0.000   0.000   0.000   0.000   0.000   0.000   0.000


------------------------ aborting loop because EDIFF is reached ----------------------------------------


 


 total charge     
 
# of ion       s       p       d       tot
------------------------------------------
    1        0.278   6.277   2.970   9.525
    2        0.278   6.277   2.970   9.525
    3        1.366   2.338   0.000   3.704
    4        1.367   2.336   0.000   3.704
    5        1.367   2.336   0.000   3.704
    6        1.366   2.338   0.000   3.704
--------------------------------------------------
tot          6.024  21.904   5.939  33.867
 


 magnetization (x)
 
# of ion       s       p       d       tot
------------------------------------------
    1        0.009   0.006   0.744   0.759
    2        0.009   0.006   0.744   0.759
    3       -0.002  -0.058   0.000  -0.060
    4       -0.001  -0.057   0.000  -0.058
    5       -0.001  -0.057   0.000  -0.058
    6       -0.002  -0.058   0.000  -0.060
--------------------------------------------------
tot          0.012  -0.219   1.488   1.280
 
    CHARGE:  cpu time    1.5418: real time    1.5435
    FORLOC:  cpu time    0.0060: real time    0.0057
    FORNL :  cpu time    2.3846: real time    2.3884
    STRESS:  cpu time    5.5462: real time    5.5545
    FORCOR:  cpu time    0.1810: real time    0.1814
    FORHAR:  cpu time    0.0230: real time    0.0230
    OFIELD:  cpu time    0.0010: real time    0.0019

  DFT-D2 method for vdW energy calculation
  -------------------------------------------------------------------

  Parameters of vdW forcefield:
         C6(Jnm^6/mol)     R0(A)
   -----------------------------
   V       10.800          1.562
   S        5.570          1.683

  IVDW =   1
  VDW_RADIUS =    50.000 A
  VDW_S6 =     0.750
  VDW_SR =     1.000
  VDW_D =    20.000
  LVDW_EWALD = F

  Number of pair interactions contributing to vdW energy:   43293
  Edisp (eV):   -1.08456
    FORVDW:  cpu time    0.0440: real time    0.0449

  FORCE on cell =-STRESS in cart. coord.  units (eV):
  Direction    XX          YY          ZZ          XY          YZ          ZX
  --------------------------------------------------------------------------------------
  Alpha Z    63.27021    63.27021    63.27021
  Ewald   19475.18034 19475.18037-21560.13832    -0.00002     0.00001     0.00002
  Hartree 20246.64409 20246.64408-19791.72340     0.00000    -0.00000    -0.00000
  E(xc)    -204.63830  -204.63830  -205.27193     0.00000     0.00000    -0.00000
  Local  -40343.31826-40343.31836 40713.42753    -0.00005    -0.00001    -0.00001
  n-local   148.34071   148.10668   154.71327    -0.79723    -0.51806    -1.69371
  augment     0.89827     0.89835     2.08601     0.00007     0.00001    -0.00002
  Kinetic   610.01649   620.13999   624.23622    -7.04554     4.24291    10.33378
  Fock        0.00000     0.00000     0.00000     0.00000     0.00000     0.00000
  vdW        -0.30391    -0.30391    -0.56154     0.00000    -0.00000    -0.00000
  -------------------------------------------------------------------------------------
  Total       1.03438     1.03438     0.03806     0.00000    -0.00000     0.00000
  in kB       6.49355     6.49355     0.23893     0.00000    -0.00000     0.00000
  external pressure =        4.41 kB  Pullay stress =        0.00 kB


 VOLUME and BASIS-vectors are now :
 -----------------------------------------------------------------------------
  energy-cutoff  :      500.00
  volume of cell :      255.22
      direct lattice vectors                 reciprocal lattice vectors
     3.188283682  0.000000000  0.000000000     0.313648376  0.181084974  0.000000000
    -1.594141841  2.761134663  0.000000000     0.000000000  0.362169949  0.000000000
     0.000000000  0.000000000 28.990970612     0.000000000  0.000000000  0.034493498

  length of vectors
     3.188283682  3.188283682 28.990970612     0.362169949  0.362169949  0.034493498


 FORCES acting on ions
    electron-ion (+dipol)            ewald-force                    non-local-force                 convergence-correction
 -----------------------------------------------------------------------------------------------
   0.839E-06 -.142E-05 0.151E+04   0.616E-05 -.107E-04 -.151E+04   0.108E-18 0.325E-18 0.133E+00   -.385E-05 0.678E-05 -.129E-01
   0.824E-06 -.148E-05 -.151E+04   0.616E-05 -.107E-04 0.151E+04   -.217E-18 -.325E-18 -.133E+00   -.405E-05 0.690E-05 0.162E-01
   -.487E-04 0.282E-04 0.152E+04   -.642E-05 0.353E-05 -.152E+04   0.104E-16 0.000E+00 0.298E+01   -.109E-03 0.629E-04 -.393E-02
   0.731E-06 0.546E-04 0.130E+03   0.359E-06 0.720E-05 -.128E+03   0.520E-17 0.173E-16 -.284E+01   0.117E-03 -.754E-04 -.240E-02
   -.485E-04 0.281E-04 -.130E+03   -.652E-05 0.348E-05 0.128E+03   -.520E-17 -.694E-17 0.284E+01   -.110E-03 0.639E-04 0.284E-02
   0.721E-06 0.548E-04 -.152E+04   0.258E-06 0.713E-05 0.152E+04   -.520E-17 -.347E-17 -.298E+01   0.115E-03 -.745E-04 0.442E-02
 -----------------------------------------------------------------------------------------------
   -.941E-04 0.163E-03 0.796E-03   -.396E-13 -.179E-15 0.227E-12   0.510E-17 0.694E-17 -.888E-15   0.542E-05 -.939E-05 0.429E-02
 
 
 POSITION                                       TOTAL-FORCE (eV/Angst)
 -----------------------------------------------------------------------------------
      0.00000      0.00000      1.46744         0.000000      0.000000      0.081673
      0.00000      0.00000      7.52354         0.000000     -0.000000     -0.081673
      1.59414      0.92038      0.00000        -0.000000      0.000000     -0.076692
     -0.00000      1.84076      2.93487         0.000000     -0.000000      0.026730
      1.59414      0.92038      6.05610        -0.000000      0.000000     -0.026730
     -0.00000      1.84076      8.99097         0.000000      0.000000      0.076692
 -----------------------------------------------------------------------------------
    total drift:                               -0.000089      0.000154      0.005082


--------------------------------------------------------------------------------------------------------



  FREE ENERGIE OF THE ION-ELECTRON SYSTEM (eV)
  ---------------------------------------------------
  free  energy   TOTEN  =       -38.57956100 eV

  energy  without entropy=      -38.57956100  energy(sigma->0) =      -38.57956100
 


--------------------------------------------------------------------------------------------------------


    POTLOK:  cpu time    0.2010: real time    0.2084


--------------------------------------------------------------------------------------------------------


     LOOP+:  cpu time  337.0738: real time  338.3971
    4ORBIT:  cpu time    0.0000: real time    0.0000
 


 total charge     
 
# of ion       s       p       d       tot
------------------------------------------
    1        0.278   6.277   2.970   9.525
    2        0.278   6.277   2.970   9.525
    3        1.366   2.338   0.000   3.704
    4        1.367   2.336   0.000   3.704
    5        1.367   2.336   0.000   3.704
    6        1.366   2.338   0.000   3.704
--------------------------------------------------
tot          6.024  21.904   5.939  33.867
 


 magnetization (x)
 
# of ion       s       p       d       tot
------------------------------------------
    1        0.009   0.006   0.744   0.759
    2        0.009   0.006   0.744   0.759
    3       -0.002  -0.058   0.000  -0.060
    4       -0.001  -0.057   0.000  -0.058
    5       -0.001  -0.057   0.000  -0.058
    6       -0.002  -0.058   0.000  -0.060
--------------------------------------------------
tot          0.012  -0.219   1.488   1.280
 
 BZINTS: Fermi energy: -1.029124; 46.000000 electrons
         Band energy:-697.907202;  BLOECHL correction: -0.003785

 total amount of memory used by VASP MPI-rank0   187438. kBytes
=======================================================================

   base      :      30000. kBytes
   nonl-proj :      75550. kBytes
   fftplans  :       4013. kBytes
   grid      :       9984. kBytes
   one-center:         62. kBytes
   wavefun   :      67829. kBytes
 
  
  
 General timing and accounting informations for this job:
 ========================================================
  
                  Total CPU time used (sec):      347.318
                            User time (sec):      345.201
                          System time (sec):        2.118
                         Elapsed time (sec):      349.092
  
                   Maximum memory used (kb):      217036.
                   Average memory used (kb):           0.
  
                          Minor page faults:        20346
                          Major page faults:            0
                 Voluntary context switches:          782
